file 656435 1613680936                                          
version 2
run General-0-20210218-21:18:40-12332
attr configname General
attr datetime 20210218-21:18:40
attr experiment General
attr inifile Blackhole.ini
attr iterationvars $mobility=5
attr iterationvars2 "$mobility=5, $repetition=0"
attr measurement $mobility=5
attr mobility 5
attr network Blackhole_Network
attr processid 12332
attr repetition 0
attr replication #0
attr resultdir results
attr runnumber 0
attr seedset 0

vector 7  Blackhole_Network.blackhole[0].wlan[0].mgmt  dataQueueLen:vector  ETV
attr interpolationmode  sample-hold
attr title  "data queue length, vector"
vector 28  Blackhole_Network.originator[0].wlan[0].mgmt  dataQueueLen:vector  ETV
attr interpolationmode  sample-hold
attr title  "data queue length, vector"
vector 48  Blackhole_Network.destination[0].wlan[0].mgmt  dataQueueLen:vector  ETV
attr interpolationmode  sample-hold
attr title  "data queue length, vector"
vector 71  Blackhole_Network.node[0].wlan[0].mgmt  dataQueueLen:vector  ETV
attr interpolationmode  sample-hold
attr title  "data queue length, vector"
vector 94  Blackhole_Network.node[1].wlan[0].mgmt  dataQueueLen:vector  ETV
attr interpolationmode  sample-hold
attr title  "data queue length, vector"
vector 117  Blackhole_Network.node[2].wlan[0].mgmt  dataQueueLen:vector  ETV
attr interpolationmode  sample-hold
attr title  "data queue length, vector"
vector 140  Blackhole_Network.node[3].wlan[0].mgmt  dataQueueLen:vector  ETV
attr interpolationmode  sample-hold
attr title  "data queue length, vector"
vector 163  Blackhole_Network.node[4].wlan[0].mgmt  dataQueueLen:vector  ETV
attr interpolationmode  sample-hold
attr title  "data queue length, vector"
vector 186  Blackhole_Network.node[5].wlan[0].mgmt  dataQueueLen:vector  ETV
attr interpolationmode  sample-hold
attr title  "data queue length, vector"
vector 209  Blackhole_Network.node[6].wlan[0].mgmt  dataQueueLen:vector  ETV
attr interpolationmode  sample-hold
attr title  "data queue length, vector"
vector 232  Blackhole_Network.node[7].wlan[0].mgmt  dataQueueLen:vector  ETV
attr interpolationmode  sample-hold
attr title  "data queue length, vector"
vector 255  Blackhole_Network.node[8].wlan[0].mgmt  dataQueueLen:vector  ETV
attr interpolationmode  sample-hold
attr title  "data queue length, vector"
vector 278  Blackhole_Network.node[9].wlan[0].mgmt  dataQueueLen:vector  ETV
attr interpolationmode  sample-hold
attr title  "data queue length, vector"
vector 285  Blackhole_Network.blackhole[0].wlan[0].mac  RadioState  ETV
attr enum  "IDLE=0, RECV=1, SLEEP=3, TRANSMIT=2"
attr enumname  RadioState
vector 284  Blackhole_Network.blackhole[0].wlan[0].mac  State  ETV
attr enum  "BACKOFF=3, DEFER=1, IDLE=0, RECEIVE=8, WAITACK=4, WAITAIFS=2, WAITCTS=6, WAITMULTICAST=5, WAITSIFS=7"
attr enumname  Ieee80211Mac
vector 291  Blackhole_Network.originator[0].wlan[0].mac  RadioState  ETV
attr enum  "IDLE=0, RECV=1, SLEEP=3, TRANSMIT=2"
attr enumname  RadioState
vector 290  Blackhole_Network.originator[0].wlan[0].mac  State  ETV
attr enum  "BACKOFF=3, DEFER=1, IDLE=0, RECEIVE=8, WAITACK=4, WAITAIFS=2, WAITCTS=6, WAITMULTICAST=5, WAITSIFS=7"
attr enumname  Ieee80211Mac
vector 297  Blackhole_Network.destination[0].wlan[0].mac  RadioState  ETV
attr enum  "IDLE=0, RECV=1, SLEEP=3, TRANSMIT=2"
attr enumname  RadioState
vector 296  Blackhole_Network.destination[0].wlan[0].mac  State  ETV
attr enum  "BACKOFF=3, DEFER=1, IDLE=0, RECEIVE=8, WAITACK=4, WAITAIFS=2, WAITCTS=6, WAITMULTICAST=5, WAITSIFS=7"
attr enumname  Ieee80211Mac
vector 303  Blackhole_Network.node[0].wlan[0].mac  RadioState  ETV
attr enum  "IDLE=0, RECV=1, SLEEP=3, TRANSMIT=2"
attr enumname  RadioState
vector 302  Blackhole_Network.node[0].wlan[0].mac  State  ETV
attr enum  "BACKOFF=3, DEFER=1, IDLE=0, RECEIVE=8, WAITACK=4, WAITAIFS=2, WAITCTS=6, WAITMULTICAST=5, WAITSIFS=7"
attr enumname  Ieee80211Mac
vector 309  Blackhole_Network.node[1].wlan[0].mac  RadioState  ETV
attr enum  "IDLE=0, RECV=1, SLEEP=3, TRANSMIT=2"
attr enumname  RadioState
vector 308  Blackhole_Network.node[1].wlan[0].mac  State  ETV
attr enum  "BACKOFF=3, DEFER=1, IDLE=0, RECEIVE=8, WAITACK=4, WAITAIFS=2, WAITCTS=6, WAITMULTICAST=5, WAITSIFS=7"
attr enumname  Ieee80211Mac
vector 315  Blackhole_Network.node[2].wlan[0].mac  RadioState  ETV
attr enum  "IDLE=0, RECV=1, SLEEP=3, TRANSMIT=2"
attr enumname  RadioState
vector 314  Blackhole_Network.node[2].wlan[0].mac  State  ETV
attr enum  "BACKOFF=3, DEFER=1, IDLE=0, RECEIVE=8, WAITACK=4, WAITAIFS=2, WAITCTS=6, WAITMULTICAST=5, WAITSIFS=7"
attr enumname  Ieee80211Mac
vector 321  Blackhole_Network.node[3].wlan[0].mac  RadioState  ETV
attr enum  "IDLE=0, RECV=1, SLEEP=3, TRANSMIT=2"
attr enumname  RadioState
vector 320  Blackhole_Network.node[3].wlan[0].mac  State  ETV
attr enum  "BACKOFF=3, DEFER=1, IDLE=0, RECEIVE=8, WAITACK=4, WAITAIFS=2, WAITCTS=6, WAITMULTICAST=5, WAITSIFS=7"
attr enumname  Ieee80211Mac
vector 327  Blackhole_Network.node[4].wlan[0].mac  RadioState  ETV
attr enum  "IDLE=0, RECV=1, SLEEP=3, TRANSMIT=2"
attr enumname  RadioState
vector 326  Blackhole_Network.node[4].wlan[0].mac  State  ETV
attr enum  "BACKOFF=3, DEFER=1, IDLE=0, RECEIVE=8, WAITACK=4, WAITAIFS=2, WAITCTS=6, WAITMULTICAST=5, WAITSIFS=7"
attr enumname  Ieee80211Mac
vector 333  Blackhole_Network.node[5].wlan[0].mac  RadioState  ETV
attr enum  "IDLE=0, RECV=1, SLEEP=3, TRANSMIT=2"
attr enumname  RadioState
vector 332  Blackhole_Network.node[5].wlan[0].mac  State  ETV
attr enum  "BACKOFF=3, DEFER=1, IDLE=0, RECEIVE=8, WAITACK=4, WAITAIFS=2, WAITCTS=6, WAITMULTICAST=5, WAITSIFS=7"
attr enumname  Ieee80211Mac
vector 339  Blackhole_Network.node[6].wlan[0].mac  RadioState  ETV
attr enum  "IDLE=0, RECV=1, SLEEP=3, TRANSMIT=2"
attr enumname  RadioState
vector 338  Blackhole_Network.node[6].wlan[0].mac  State  ETV
attr enum  "BACKOFF=3, DEFER=1, IDLE=0, RECEIVE=8, WAITACK=4, WAITAIFS=2, WAITCTS=6, WAITMULTICAST=5, WAITSIFS=7"
attr enumname  Ieee80211Mac
vector 345  Blackhole_Network.node[7].wlan[0].mac  RadioState  ETV
attr enum  "IDLE=0, RECV=1, SLEEP=3, TRANSMIT=2"
attr enumname  RadioState
vector 344  Blackhole_Network.node[7].wlan[0].mac  State  ETV
attr enum  "BACKOFF=3, DEFER=1, IDLE=0, RECEIVE=8, WAITACK=4, WAITAIFS=2, WAITCTS=6, WAITMULTICAST=5, WAITSIFS=7"
attr enumname  Ieee80211Mac
vector 351  Blackhole_Network.node[8].wlan[0].mac  RadioState  ETV
attr enum  "IDLE=0, RECV=1, SLEEP=3, TRANSMIT=2"
attr enumname  RadioState
vector 350  Blackhole_Network.node[8].wlan[0].mac  State  ETV
attr enum  "BACKOFF=3, DEFER=1, IDLE=0, RECEIVE=8, WAITACK=4, WAITAIFS=2, WAITCTS=6, WAITMULTICAST=5, WAITSIFS=7"
attr enumname  Ieee80211Mac
vector 357  Blackhole_Network.node[9].wlan[0].mac  RadioState  ETV
attr enum  "IDLE=0, RECV=1, SLEEP=3, TRANSMIT=2"
attr enumname  RadioState
vector 356  Blackhole_Network.node[9].wlan[0].mac  State  ETV
attr enum  "BACKOFF=3, DEFER=1, IDLE=0, RECEIVE=8, WAITACK=4, WAITAIFS=2, WAITCTS=6, WAITMULTICAST=5, WAITSIFS=7"
attr enumname  Ieee80211Mac
vector 9  Blackhole_Network.blackhole[0].wlan[0].radio  bitrate:vector  ETV
attr interpolationmode  sample-hold
attr title  "tx bitrate, vector"
attr unit  bps
vector 11  Blackhole_Network.blackhole[0].wlan[0].radio  radioState:vector  ETV
attr interpolationmode  sample-hold
attr title  "radio state (enum), vector"
vector 10  Blackhole_Network.blackhole[0].wlan[0].radio  channelNo:vector  ETV
attr interpolationmode  sample-hold
attr title  "channel no, vector"
vector 30  Blackhole_Network.originator[0].wlan[0].radio  bitrate:vector  ETV
attr interpolationmode  sample-hold
attr title  "tx bitrate, vector"
attr unit  bps
vector 32  Blackhole_Network.originator[0].wlan[0].radio  radioState:vector  ETV
attr interpolationmode  sample-hold
attr title  "radio state (enum), vector"
vector 31  Blackhole_Network.originator[0].wlan[0].radio  channelNo:vector  ETV
attr interpolationmode  sample-hold
attr title  "channel no, vector"
vector 50  Blackhole_Network.destination[0].wlan[0].radio  bitrate:vector  ETV
attr interpolationmode  sample-hold
attr title  "tx bitrate, vector"
attr unit  bps
vector 52  Blackhole_Network.destination[0].wlan[0].radio  radioState:vector  ETV
attr interpolationmode  sample-hold
attr title  "radio state (enum), vector"
vector 51  Blackhole_Network.destination[0].wlan[0].radio  channelNo:vector  ETV
attr interpolationmode  sample-hold
attr title  "channel no, vector"
vector 73  Blackhole_Network.node[0].wlan[0].radio  bitrate:vector  ETV
attr interpolationmode  sample-hold
attr title  "tx bitrate, vector"
attr unit  bps
vector 75  Blackhole_Network.node[0].wlan[0].radio  radioState:vector  ETV
attr interpolationmode  sample-hold
attr title  "radio state (enum), vector"
vector 74  Blackhole_Network.node[0].wlan[0].radio  channelNo:vector  ETV
attr interpolationmode  sample-hold
attr title  "channel no, vector"
vector 96  Blackhole_Network.node[1].wlan[0].radio  bitrate:vector  ETV
attr interpolationmode  sample-hold
attr title  "tx bitrate, vector"
attr unit  bps
vector 98  Blackhole_Network.node[1].wlan[0].radio  radioState:vector  ETV
attr interpolationmode  sample-hold
attr title  "radio state (enum), vector"
vector 97  Blackhole_Network.node[1].wlan[0].radio  channelNo:vector  ETV
attr interpolationmode  sample-hold
attr title  "channel no, vector"
vector 119  Blackhole_Network.node[2].wlan[0].radio  bitrate:vector  ETV
attr interpolationmode  sample-hold
attr title  "tx bitrate, vector"
attr unit  bps
vector 121  Blackhole_Network.node[2].wlan[0].radio  radioState:vector  ETV
attr interpolationmode  sample-hold
attr title  "radio state (enum), vector"
vector 120  Blackhole_Network.node[2].wlan[0].radio  channelNo:vector  ETV
attr interpolationmode  sample-hold
attr title  "channel no, vector"
vector 142  Blackhole_Network.node[3].wlan[0].radio  bitrate:vector  ETV
attr interpolationmode  sample-hold
attr title  "tx bitrate, vector"
attr unit  bps
vector 144  Blackhole_Network.node[3].wlan[0].radio  radioState:vector  ETV
attr interpolationmode  sample-hold
attr title  "radio state (enum), vector"
vector 143  Blackhole_Network.node[3].wlan[0].radio  channelNo:vector  ETV
attr interpolationmode  sample-hold
attr title  "channel no, vector"
vector 165  Blackhole_Network.node[4].wlan[0].radio  bitrate:vector  ETV
attr interpolationmode  sample-hold
attr title  "tx bitrate, vector"
attr unit  bps
vector 167  Blackhole_Network.node[4].wlan[0].radio  radioState:vector  ETV
attr interpolationmode  sample-hold
attr title  "radio state (enum), vector"
vector 166  Blackhole_Network.node[4].wlan[0].radio  channelNo:vector  ETV
attr interpolationmode  sample-hold
attr title  "channel no, vector"
vector 188  Blackhole_Network.node[5].wlan[0].radio  bitrate:vector  ETV
attr interpolationmode  sample-hold
attr title  "tx bitrate, vector"
attr unit  bps
vector 190  Blackhole_Network.node[5].wlan[0].radio  radioState:vector  ETV
attr interpolationmode  sample-hold
attr title  "radio state (enum), vector"
vector 189  Blackhole_Network.node[5].wlan[0].radio  channelNo:vector  ETV
attr interpolationmode  sample-hold
attr title  "channel no, vector"
vector 211  Blackhole_Network.node[6].wlan[0].radio  bitrate:vector  ETV
attr interpolationmode  sample-hold
attr title  "tx bitrate, vector"
attr unit  bps
vector 213  Blackhole_Network.node[6].wlan[0].radio  radioState:vector  ETV
attr interpolationmode  sample-hold
attr title  "radio state (enum), vector"
vector 212  Blackhole_Network.node[6].wlan[0].radio  channelNo:vector  ETV
attr interpolationmode  sample-hold
attr title  "channel no, vector"
vector 234  Blackhole_Network.node[7].wlan[0].radio  bitrate:vector  ETV
attr interpolationmode  sample-hold
attr title  "tx bitrate, vector"
attr unit  bps
vector 236  Blackhole_Network.node[7].wlan[0].radio  radioState:vector  ETV
attr interpolationmode  sample-hold
attr title  "radio state (enum), vector"
vector 235  Blackhole_Network.node[7].wlan[0].radio  channelNo:vector  ETV
attr interpolationmode  sample-hold
attr title  "channel no, vector"
vector 257  Blackhole_Network.node[8].wlan[0].radio  bitrate:vector  ETV
attr interpolationmode  sample-hold
attr title  "tx bitrate, vector"
attr unit  bps
vector 259  Blackhole_Network.node[8].wlan[0].radio  radioState:vector  ETV
attr interpolationmode  sample-hold
attr title  "radio state (enum), vector"
vector 258  Blackhole_Network.node[8].wlan[0].radio  channelNo:vector  ETV
attr interpolationmode  sample-hold
attr title  "channel no, vector"
vector 280  Blackhole_Network.node[9].wlan[0].radio  bitrate:vector  ETV
attr interpolationmode  sample-hold
attr title  "tx bitrate, vector"
attr unit  bps
vector 282  Blackhole_Network.node[9].wlan[0].radio  radioState:vector  ETV
attr interpolationmode  sample-hold
attr title  "radio state (enum), vector"
vector 281  Blackhole_Network.node[9].wlan[0].radio  channelNo:vector  ETV
attr interpolationmode  sample-hold
attr title  "channel no, vector"
vector 123  Blackhole_Network.node[3].udpApp[0]  sentPk:vector(packetBytes)  ETV
attr interpolationmode  none
attr source  sentPk
attr title  "packets sent, vector(packetBytes)"
vector 128  Blackhole_Network.node[3].udp  sentPk:vector(packetBytes)  ETV
attr interpolationmode  none
attr source  sentPk
attr title  "packets sent, vector(packetBytes)"
vector 323  Blackhole_Network.node[3].wlan[0].mac  "throughput AC0"  ETV
vector 347  Blackhole_Network.node[7].wlan[0].mac  "throughput AC0"  ETV
vector 293  Blackhole_Network.originator[0].wlan[0].mac  "throughput AC0"  ETV
vector 349  Blackhole_Network.node[7].wlan[0].radio  snirVector  ETV
vector 295  Blackhole_Network.originator[0].wlan[0].radio  snirVector  ETV
vector 192  Blackhole_Network.node[6].udpApp[0]  sentPk:vector(packetBytes)  ETV
attr interpolationmode  none
attr source  sentPk
attr title  "packets sent, vector(packetBytes)"
vector 197  Blackhole_Network.node[6].udp  sentPk:vector(packetBytes)  ETV
attr interpolationmode  none
attr source  sentPk
attr title  "packets sent, vector(packetBytes)"
vector 341  Blackhole_Network.node[6].wlan[0].mac  "throughput AC0"  ETV
vector 299  Blackhole_Network.destination[0].wlan[0].mac  "throughput AC0"  ETV
vector 287  Blackhole_Network.blackhole[0].wlan[0].mac  "throughput AC0"  ETV
vector 301  Blackhole_Network.destination[0].wlan[0].radio  snirVector  ETV
vector 289  Blackhole_Network.blackhole[0].wlan[0].radio  snirVector  ETV
vector 261  Blackhole_Network.node[9].udpApp[0]  sentPk:vector(packetBytes)  ETV
attr interpolationmode  none
attr source  sentPk
attr title  "packets sent, vector(packetBytes)"
vector 266  Blackhole_Network.node[9].udp  sentPk:vector(packetBytes)  ETV
attr interpolationmode  none
attr source  sentPk
attr title  "packets sent, vector(packetBytes)"
vector 359  Blackhole_Network.node[9].wlan[0].mac  "throughput AC0"  ETV
vector 353  Blackhole_Network.node[8].wlan[0].mac  "throughput AC0"  ETV
vector 329  Blackhole_Network.node[4].wlan[0].mac  "throughput AC0"  ETV
vector 355  Blackhole_Network.node[8].wlan[0].radio  snirVector  ETV
vector 331  Blackhole_Network.node[4].wlan[0].radio  snirVector  ETV
vector 77  Blackhole_Network.node[1].udpApp[0]  sentPk:vector(packetBytes)  ETV
attr interpolationmode  none
attr source  sentPk
attr title  "packets sent, vector(packetBytes)"
vector 82  Blackhole_Network.node[1].udp  sentPk:vector(packetBytes)  ETV
attr interpolationmode  none
attr source  sentPk
attr title  "packets sent, vector(packetBytes)"
vector 311  Blackhole_Network.node[1].wlan[0].mac  "throughput AC0"  ETV
vector 335  Blackhole_Network.node[5].wlan[0].mac  "throughput AC0"  ETV
vector 337  Blackhole_Network.node[5].wlan[0].radio  snirVector  ETV
vector 14  Blackhole_Network.originator[0].udpApp[0]  sentPk:vector(packetBytes)  ETV
attr interpolationmode  none
attr source  sentPk
attr title  "packets sent, vector(packetBytes)"
vector 16  Blackhole_Network.originator[0].udp  sentPk:vector(packetBytes)  ETV
attr interpolationmode  none
attr source  sentPk
attr title  "packets sent, vector(packetBytes)"
vector 317  Blackhole_Network.node[2].wlan[0].mac  "throughput AC0"  ETV
vector 319  Blackhole_Network.node[2].wlan[0].radio  snirVector  ETV
vector 325  Blackhole_Network.node[3].wlan[0].radio  snirVector  ETV
vector 100  Blackhole_Network.node[2].udpApp[0]  sentPk:vector(packetBytes)  ETV
attr interpolationmode  none
attr source  sentPk
attr title  "packets sent, vector(packetBytes)"
vector 105  Blackhole_Network.node[2].udp  sentPk:vector(packetBytes)  ETV
attr interpolationmode  none
attr source  sentPk
attr title  "packets sent, vector(packetBytes)"
vector 305  Blackhole_Network.node[0].wlan[0].mac  "throughput AC0"  ETV
vector 307  Blackhole_Network.node[0].wlan[0].radio  snirVector  ETV
vector 343  Blackhole_Network.node[6].wlan[0].radio  snirVector  ETV
vector 306  Blackhole_Network.node[0].wlan[0].mac  "Mac delay AC0"  ETV
vector 288  Blackhole_Network.blackhole[0].wlan[0].mac  "Mac delay AC0"  ETV
vector 348  Blackhole_Network.node[7].wlan[0].mac  "Mac delay AC0"  ETV
vector 226  Blackhole_Network.node[7].networkLayer.ip  rcvdPkt:vector  ETV
attr interpolationmode  none
attr title  "Number of packet received, vector"
vector 324  Blackhole_Network.node[3].wlan[0].mac  "Mac delay AC0"  ETV
vector 1  Blackhole_Network.blackhole[0].networkLayer.ip  rcvdPkt:vector  ETV
attr interpolationmode  none
attr title  "Number of packet received, vector"
vector 65  Blackhole_Network.node[0].networkLayer.ip  rcvdPkt:vector  ETV
attr interpolationmode  none
attr title  "Number of packet received, vector"
vector 60  Blackhole_Network.node[0].udp  rcvdPk:vector(packetBytes)  ETV
attr interpolationmode  none
attr source  rcvdPk
attr title  "packets received, vector(packetBytes)"
vector 61  Blackhole_Network.node[0].udp  passedUpPk:vector(count)  ETV
attr interpolationmode  none
attr title  "packets passed up, vector(count)"
vector 55  Blackhole_Network.node[0].udpApp[0]  rcvdPk:vector(packetBytes)  ETV
attr interpolationmode  none
attr source  rcvdPk
attr title  "packets received, vector(packetBytes)"
vector 58  Blackhole_Network.node[0].udpApp[0]  endToEndDelay:vector  ETV
attr interpolationmode  none
attr source  messageAge(rcvdPk)
attr title  "delay, vector"
attr unit  s
vector 286  Blackhole_Network.blackhole[0].wlan[0].mac  "jitter AC0"  ETV
vector 304  Blackhole_Network.node[0].wlan[0].mac  "jitter AC0"  ETV
vector 346  Blackhole_Network.node[7].wlan[0].mac  "jitter AC0"  ETV
vector 322  Blackhole_Network.node[3].wlan[0].mac  "jitter AC0"  ETV
vector 361  Blackhole_Network.node[9].wlan[0].radio  snirVector  ETV
vector 313  Blackhole_Network.node[1].wlan[0].radio  snirVector  ETV
vector 215  Blackhole_Network.node[7].udpApp[0]  sentPk:vector(packetBytes)  ETV
attr interpolationmode  none
attr source  sentPk
attr title  "packets sent, vector(packetBytes)"
vector 220  Blackhole_Network.node[7].udp  sentPk:vector(packetBytes)  ETV
attr interpolationmode  none
attr source  sentPk
attr title  "packets sent, vector(packetBytes)"
vector 111  Blackhole_Network.node[2].networkLayer.ip  rcvdPkt:vector  ETV
attr interpolationmode  none
attr title  "Number of packet received, vector"
vector 106  Blackhole_Network.node[2].udp  rcvdPk:vector(packetBytes)  ETV
attr interpolationmode  none
attr source  rcvdPk
attr title  "packets received, vector(packetBytes)"
vector 107  Blackhole_Network.node[2].udp  passedUpPk:vector(count)  ETV
attr interpolationmode  none
attr title  "packets passed up, vector(count)"
vector 101  Blackhole_Network.node[2].udpApp[0]  rcvdPk:vector(packetBytes)  ETV
attr interpolationmode  none
attr source  rcvdPk
attr title  "packets received, vector(packetBytes)"
vector 104  Blackhole_Network.node[2].udpApp[0]  endToEndDelay:vector  ETV
attr interpolationmode  none
attr source  messageAge(rcvdPk)
attr title  "delay, vector"
attr unit  s
vector 300  Blackhole_Network.destination[0].wlan[0].mac  "Mac delay AC0"  ETV
vector 294  Blackhole_Network.originator[0].wlan[0].mac  "Mac delay AC0"  ETV
vector 42  Blackhole_Network.destination[0].networkLayer.ip  rcvdPkt:vector  ETV
attr interpolationmode  none
attr title  "Number of packet received, vector"
vector 37  Blackhole_Network.destination[0].udp  rcvdPk:vector(packetBytes)  ETV
attr interpolationmode  none
attr source  rcvdPk
attr title  "packets received, vector(packetBytes)"
vector 38  Blackhole_Network.destination[0].udp  passedUpPk:vector(count)  ETV
attr interpolationmode  none
attr title  "packets passed up, vector(count)"
vector 34  Blackhole_Network.destination[0].udpApp[0]  rcvdPk:vector(packetBytes)  ETV
attr interpolationmode  none
attr source  rcvdPk
attr title  "packets received, vector(packetBytes)"
vector 35  Blackhole_Network.destination[0].udpApp[0]  endToEndDelay:vector  ETV
attr interpolationmode  none
attr source  messageAge(rcvdPk)
attr title  "end-to-end delay, vector"
attr unit  s
vector 292  Blackhole_Network.originator[0].wlan[0].mac  "jitter AC0"  ETV
vector 298  Blackhole_Network.destination[0].wlan[0].mac  "jitter AC0"  ETV
vector 146  Blackhole_Network.node[4].udpApp[0]  sentPk:vector(packetBytes)  ETV
attr interpolationmode  none
attr source  sentPk
attr title  "packets sent, vector(packetBytes)"
vector 151  Blackhole_Network.node[4].udp  sentPk:vector(packetBytes)  ETV
attr interpolationmode  none
attr source  sentPk
attr title  "packets sent, vector(packetBytes)"
vector 237  Blackhole_Network.node[7].wlan[0].radio  lossRate:vector  ETV
attr interpolationmode  backward-sample-hold
attr title  "packet loss rate, vector"
vector 169  Blackhole_Network.node[5].udpApp[0]  sentPk:vector(packetBytes)  ETV
attr interpolationmode  none
attr source  sentPk
attr title  "packets sent, vector(packetBytes)"
vector 174  Blackhole_Network.node[5].udp  sentPk:vector(packetBytes)  ETV
attr interpolationmode  none
attr source  sentPk
attr title  "packets sent, vector(packetBytes)"
vector 54  Blackhole_Network.node[0].udpApp[0]  sentPk:vector(packetBytes)  ETV
attr interpolationmode  none
attr source  sentPk
attr title  "packets sent, vector(packetBytes)"
vector 59  Blackhole_Network.node[0].udp  sentPk:vector(packetBytes)  ETV
attr interpolationmode  none
attr source  sentPk
attr title  "packets sent, vector(packetBytes)"
vector 12  Blackhole_Network.blackhole[0].wlan[0].radio  lossRate:vector  ETV
attr interpolationmode  backward-sample-hold
attr title  "packet loss rate, vector"
vector 33  Blackhole_Network.originator[0].wlan[0].radio  lossRate:vector  ETV
attr interpolationmode  backward-sample-hold
attr title  "packet loss rate, vector"
vector 238  Blackhole_Network.node[8].udpApp[0]  sentPk:vector(packetBytes)  ETV
attr interpolationmode  none
attr source  sentPk
attr title  "packets sent, vector(packetBytes)"
vector 243  Blackhole_Network.node[8].udp  sentPk:vector(packetBytes)  ETV
attr interpolationmode  none
attr source  sentPk
attr title  "packets sent, vector(packetBytes)"
vector 157  Blackhole_Network.node[4].networkLayer.ip  rcvdPkt:vector  ETV
attr interpolationmode  none
attr title  "Number of packet received, vector"
vector 152  Blackhole_Network.node[4].udp  rcvdPk:vector(packetBytes)  ETV
attr interpolationmode  none
attr source  rcvdPk
attr title  "packets received, vector(packetBytes)"
vector 153  Blackhole_Network.node[4].udp  passedUpPk:vector(count)  ETV
attr interpolationmode  none
attr title  "packets passed up, vector(count)"
vector 147  Blackhole_Network.node[4].udpApp[0]  rcvdPk:vector(packetBytes)  ETV
attr interpolationmode  none
attr source  rcvdPk
attr title  "packets received, vector(packetBytes)"
vector 150  Blackhole_Network.node[4].udpApp[0]  endToEndDelay:vector  ETV
attr interpolationmode  none
attr source  messageAge(rcvdPk)
attr title  "delay, vector"
attr unit  s
vector 354  Blackhole_Network.node[8].wlan[0].mac  "Mac delay AC0"  ETV
vector 122  Blackhole_Network.node[2].wlan[0].radio  lossRate:vector  ETV
attr interpolationmode  backward-sample-hold
attr title  "packet loss rate, vector"
vector 53  Blackhole_Network.destination[0].wlan[0].radio  lossRate:vector  ETV
attr interpolationmode  backward-sample-hold
attr title  "packet loss rate, vector"
vector 352  Blackhole_Network.node[8].wlan[0].mac  "jitter AC0"  ETV
vector 145  Blackhole_Network.node[3].wlan[0].radio  lossRate:vector  ETV
attr interpolationmode  backward-sample-hold
attr title  "packet loss rate, vector"
vector 76  Blackhole_Network.node[0].wlan[0].radio  lossRate:vector  ETV
attr interpolationmode  backward-sample-hold
attr title  "packet loss rate, vector"
vector 214  Blackhole_Network.node[6].wlan[0].radio  lossRate:vector  ETV
attr interpolationmode  backward-sample-hold
attr title  "packet loss rate, vector"
1	25126 384 1447 13934 1.083368821397 2.392732462639 15 1 15 120 1240
7	25510 9 0 0 0 0 1 0 0 0 0
9	25519 16 0 0 0 0 1 54000000 54000000 54000000 2.916e+015
10	25535 10 0 0 0 0 1 0 0 0 0
11	25545 22616 0 14895 0 2.545628349785 865 0 2 584 888
12	48161 56 5092 10963 1.392400855029 2.045139358381 2 0 0.04 0.04 0.0016
14	48217 113 368 14835 1.044883177382 2.545511209502 4 512 512 2048 1048576
16	48330 113 369 14836 1.044883177382 2.545511209502 4 520 520 2080 1081600
28	48443 10 0 0 0 0 1 0 0 0 0
30	48453 17 0 0 0 0 1 54000000 54000000 54000000 2.916e+015
31	48470 10 0 0 0 0 1 0 0 0 0
32	48480 15794 0 14888 0 2.545627885866 605 0 2 336 404
33	64274 56 5161 11357 1.392570002083 2.088539728541 2 0 0.02 0.02 0.0004
34	64330 85 4023 11186 1.293520653081 2.045594318216 3 512 512 1536 786432
35	64415 118 4023 11186 1.293520653081 2.045594318216 3 0.000991769505 0.248637475699 0.250621021543 0.061822561549028
37	64533 85 4022 11185 1.293520653081 2.045594318216 3 520 520 1560 811200
38	64618 79 4022 11185 1.293520653081 2.045594318216 3 1 3 6 14
42	64697 79 4019 11182 1.293520653081 2.045594318216 3 1 3 6 14
48	64776 10 0 0 0 0 1 0 0 0 0
50	64786 17 0 0 0 0 1 54000000 54000000 54000000 2.916e+015
51	64803 10 0 0 0 0 1 0 0 0 0
52	64813 13276 0 14057 0 2.392998522414 509 0 2 280 332
53	78089 56 6010 13148 1.544993241889 2.275927734412 2 0 0.02 0.02 0.0004
54	78145 142 4890 13831 1.391773001756 2.392480256283 5 512 512 2560 1310720
55	78287 197 1593 13792 1.083672057132 2.33874943573 7 512 512 3584 1835008
58	78484 273 1593 13792 1.083672057132 2.33874943573 7 0.001029808497 0.246275895502 0.253480777774 0.060660559787607
59	78757 142 4891 13832 1.391773001756 2.392480256283 5 520 520 2600 1352000
60	78899 197 1592 13791 1.083672057132 2.33874943573 7 520 520 3640 1892800
61	79096 183 1592 13791 1.083672057132 2.33874943573 7 1 7 28 140
65	79279 183 1589 13788 1.083672057132 2.33874943573 7 1 7 28 140
71	79462 10 0 0 0 0 1 0 0 0 0
73	79472 17 0 0 0 0 1 54000000 54000000 54000000 2.916e+015
74	79489 10 0 0 0 0 1 0 0 0 0
75	79499 12652 0 14059 0 2.392998805661 485 0 2 306 434
76	92151 26 7999 7999 1.642569508759 1.642569508759 1 0 0 0 0
77	92177 198 294 14563 0.977665111655 2.476898739484 7 512 512 3584 1835008
82	92375 198 295 14564 0.977665111655 2.476898739484 7 520 520 3640 1892800
94	92573 10 0 0 0 0 1 0 0 0 0
96	92583 17 0 0 0 0 1 54000000 54000000 54000000 2.916e+015
97	92600 10 0 0 0 0 1 0 0 0 0
98	92610 2106 0 14814 0 2.544511095242 81 0 2 60 100
100	94716 175 428 13391 1.068044563755 2.319230286739 6 512 512 3072 1572864
101	94891 324 2677 14524 1.220884155073 2.469458806873 11 512 512 5632 2883584
104	95215 445 2677 14524 1.220884155073 2.469458806873 11 0.000251474122 0.001173166677 0.00660057687 5.5977371368559e-006
105	95660 175 429 13392 1.068044563755 2.319230286739 6 520 520 3120 1622400
106	95835 324 2676 14523 1.220884155073 2.469458806873 11 520 520 5720 2974400
107	96159 304 2676 14523 1.220884155073 2.469458806873 11 1 11 66 506
111	96463 304 2673 14520 1.220884155073 2.469458806873 11 1 11 66 506
117	96767 11 0 0 0 0 1 0 0 0 0
119	96778 18 0 0 0 0 1 54000000 54000000 54000000 2.916e+015
120	96796 11 0 0 0 0 1 0 0 0 0
121	96807 14779 0 14890 0 2.545628038243 545 0 2 332 452
122	111586 55 5871 14103 1.544681598164 2.393043366184 2 0 0 0 0
123	111641 201 119 13403 0.83739616163 2.337467642896 7 512 512 3584 1835008
128	111842 201 120 13404 0.83739616163 2.337467642896 7 520 520 3640 1892800
140	112043 11 0 0 0 0 1 0 0 0 0
142	112054 18 0 0 0 0 1 54000000 54000000 54000000 2.916e+015
143	112072 11 0 0 0 0 1 0 0 0 0
144	112083 13463 0 14892 0 2.545628273773 497 0 2 296 392
145	125546 26 6460 6460 1.58811568905 1.58811568905 1 0 0 0 0
146	125572 146 4346 13397 1.33261984284 2.333658152968 5 512 512 2560 1310720
147	125718 148 5435 14376 1.444920282391 2.445970321982 5 512 512 2560 1310720
150	125866 203 5435 14376 1.444920282391 2.445970321982 5 0.000251339584 0.000251363776 0.001256760791 3.1588953752655e-007
151	126069 146 4347 13398 1.33261984284 2.333658152968 5 520 520 2600 1352000
152	126215 148 5434 14375 1.444920282391 2.445970321982 5 520 520 2600 1352000
153	126363 138 5434 14375 1.444920282391 2.445970321982 5 1 5 15 55
157	126501 138 5431 14372 1.444920282391 2.445970321982 5 1 5 15 55
163	126639 11 0 0 0 0 1 0 0 0 0
165	126650 18 0 0 0 0 1 54000000 54000000 54000000 2.916e+015
166	126668 11 0 0 0 0 1 0 0 0 0
167	126679 6565 0 14760 0 2.539776715513 241 0 2 160 240
169	133244 147 4830 13825 1.370087251067 2.371713542615 5 512 512 2560 1310720
174	133391 147 4831 13826 1.370087251067 2.371713542615 5 520 520 2600 1352000
186	133538 11 0 0 0 0 1 0 0 0 0
188	133549 18 0 0 0 0 1 54000000 54000000 54000000 2.916e+015
189	133567 11 0 0 0 0 1 0 0 0 0
190	133578 6473 0 14815 0 2.544511844432 237 0 2 138 178
192	140051 205 186 14409 0.961479362798 2.462509615368 7 512 512 3584 1835008
197	140256 205 187 14410 0.961479362798 2.462509615368 7 520 520 3640 1892800
209	140461 11 0 0 0 0 1 0 0 0 0
211	140472 18 0 0 0 0 1 54000000 54000000 54000000 2.916e+015
212	140490 11 0 0 0 0 1 0 0 0 0
213	140501 10337 0 14061 0 2.392998857797 381 0 2 202 226
214	150838 27 8001 8001 1.642569538864 1.642569538864 1 0 0 0 0
215	150865 177 2568 14415 1.220632651587 2.469207332751 6 512 512 3072 1572864