file 900281 1613757398                                          
version 2
run General-0-20210219-18:27:26-2156
attr configname General
attr datetime 20210219-18:27:26
attr experiment General
attr inifile Blackhole.ini
attr iterationvars $mobility=5
attr iterationvars2 "$mobility=5, $repetition=0"
attr measurement $mobility=5
attr mobility 5
attr network Blackhole_Network
attr processid 2156
attr repetition 0
attr replication #0
attr resultdir results
attr runnumber 0
attr seedset 0

vector 8  Blackhole_Network.blackhole[0].wlan[0].mgmt  dataQueueLen:vector  ETV
attr interpolationmode  sample-hold
attr title  "data queue length, vector"
vector 30  Blackhole_Network.originator[0].wlan[0].mgmt  dataQueueLen:vector  ETV
attr interpolationmode  sample-hold
attr title  "data queue length, vector"
vector 51  Blackhole_Network.destination[0].wlan[0].mgmt  dataQueueLen:vector  ETV
attr interpolationmode  sample-hold
attr title  "data queue length, vector"
vector 75  Blackhole_Network.node[0].wlan[0].mgmt  dataQueueLen:vector  ETV
attr interpolationmode  sample-hold
attr title  "data queue length, vector"
vector 99  Blackhole_Network.node[1].wlan[0].mgmt  dataQueueLen:vector  ETV
attr interpolationmode  sample-hold
attr title  "data queue length, vector"
vector 123  Blackhole_Network.node[2].wlan[0].mgmt  dataQueueLen:vector  ETV
attr interpolationmode  sample-hold
attr title  "data queue length, vector"
vector 147  Blackhole_Network.node[3].wlan[0].mgmt  dataQueueLen:vector  ETV
attr interpolationmode  sample-hold
attr title  "data queue length, vector"
vector 171  Blackhole_Network.node[4].wlan[0].mgmt  dataQueueLen:vector  ETV
attr interpolationmode  sample-hold
attr title  "data queue length, vector"
vector 195  Blackhole_Network.node[5].wlan[0].mgmt  dataQueueLen:vector  ETV
attr interpolationmode  sample-hold
attr title  "data queue length, vector"
vector 219  Blackhole_Network.node[6].wlan[0].mgmt  dataQueueLen:vector  ETV
attr interpolationmode  sample-hold
attr title  "data queue length, vector"
vector 243  Blackhole_Network.node[7].wlan[0].mgmt  dataQueueLen:vector  ETV
attr interpolationmode  sample-hold
attr title  "data queue length, vector"
vector 267  Blackhole_Network.node[8].wlan[0].mgmt  dataQueueLen:vector  ETV
attr interpolationmode  sample-hold
attr title  "data queue length, vector"
vector 291  Blackhole_Network.node[9].wlan[0].mgmt  dataQueueLen:vector  ETV
attr interpolationmode  sample-hold
attr title  "data queue length, vector"
vector 298  Blackhole_Network.blackhole[0].wlan[0].mac  RadioState  ETV
attr enum  "IDLE=0, RECV=1, SLEEP=3, TRANSMIT=2"
attr enumname  RadioState
vector 297  Blackhole_Network.blackhole[0].wlan[0].mac  State  ETV
attr enum  "BACKOFF=3, DEFER=1, IDLE=0, RECEIVE=8, WAITACK=4, WAITAIFS=2, WAITCTS=6, WAITMULTICAST=5, WAITSIFS=7"
attr enumname  Ieee80211Mac
vector 304  Blackhole_Network.originator[0].wlan[0].mac  RadioState  ETV
attr enum  "IDLE=0, RECV=1, SLEEP=3, TRANSMIT=2"
attr enumname  RadioState
vector 303  Blackhole_Network.originator[0].wlan[0].mac  State  ETV
attr enum  "BACKOFF=3, DEFER=1, IDLE=0, RECEIVE=8, WAITACK=4, WAITAIFS=2, WAITCTS=6, WAITMULTICAST=5, WAITSIFS=7"
attr enumname  Ieee80211Mac
vector 310  Blackhole_Network.destination[0].wlan[0].mac  RadioState  ETV
attr enum  "IDLE=0, RECV=1, SLEEP=3, TRANSMIT=2"
attr enumname  RadioState
vector 309  Blackhole_Network.destination[0].wlan[0].mac  State  ETV
attr enum  "BACKOFF=3, DEFER=1, IDLE=0, RECEIVE=8, WAITACK=4, WAITAIFS=2, WAITCTS=6, WAITMULTICAST=5, WAITSIFS=7"
attr enumname  Ieee80211Mac
vector 316  Blackhole_Network.node[0].wlan[0].mac  RadioState  ETV
attr enum  "IDLE=0, RECV=1, SLEEP=3, TRANSMIT=2"
attr enumname  RadioState
vector 315  Blackhole_Network.node[0].wlan[0].mac  State  ETV
attr enum  "BACKOFF=3, DEFER=1, IDLE=0, RECEIVE=8, WAITACK=4, WAITAIFS=2, WAITCTS=6, WAITMULTICAST=5, WAITSIFS=7"
attr enumname  Ieee80211Mac
vector 322  Blackhole_Network.node[1].wlan[0].mac  RadioState  ETV
attr enum  "IDLE=0, RECV=1, SLEEP=3, TRANSMIT=2"
attr enumname  RadioState
vector 321  Blackhole_Network.node[1].wlan[0].mac  State  ETV
attr enum  "BACKOFF=3, DEFER=1, IDLE=0, RECEIVE=8, WAITACK=4, WAITAIFS=2, WAITCTS=6, WAITMULTICAST=5, WAITSIFS=7"
attr enumname  Ieee80211Mac
vector 328  Blackhole_Network.node[2].wlan[0].mac  RadioState  ETV
attr enum  "IDLE=0, RECV=1, SLEEP=3, TRANSMIT=2"
attr enumname  RadioState
vector 327  Blackhole_Network.node[2].wlan[0].mac  State  ETV
attr enum  "BACKOFF=3, DEFER=1, IDLE=0, RECEIVE=8, WAITACK=4, WAITAIFS=2, WAITCTS=6, WAITMULTICAST=5, WAITSIFS=7"
attr enumname  Ieee80211Mac
vector 334  Blackhole_Network.node[3].wlan[0].mac  RadioState  ETV
attr enum  "IDLE=0, RECV=1, SLEEP=3, TRANSMIT=2"
attr enumname  RadioState
vector 333  Blackhole_Network.node[3].wlan[0].mac  State  ETV
attr enum  "BACKOFF=3, DEFER=1, IDLE=0, RECEIVE=8, WAITACK=4, WAITAIFS=2, WAITCTS=6, WAITMULTICAST=5, WAITSIFS=7"
attr enumname  Ieee80211Mac
vector 340  Blackhole_Network.node[4].wlan[0].mac  RadioState  ETV
attr enum  "IDLE=0, RECV=1, SLEEP=3, TRANSMIT=2"
attr enumname  RadioState
vector 339  Blackhole_Network.node[4].wlan[0].mac  State  ETV
attr enum  "BACKOFF=3, DEFER=1, IDLE=0, RECEIVE=8, WAITACK=4, WAITAIFS=2, WAITCTS=6, WAITMULTICAST=5, WAITSIFS=7"
attr enumname  Ieee80211Mac
vector 346  Blackhole_Network.node[5].wlan[0].mac  RadioState  ETV
attr enum  "IDLE=0, RECV=1, SLEEP=3, TRANSMIT=2"
attr enumname  RadioState
vector 345  Blackhole_Network.node[5].wlan[0].mac  State  ETV
attr enum  "BACKOFF=3, DEFER=1, IDLE=0, RECEIVE=8, WAITACK=4, WAITAIFS=2, WAITCTS=6, WAITMULTICAST=5, WAITSIFS=7"
attr enumname  Ieee80211Mac
vector 352  Blackhole_Network.node[6].wlan[0].mac  RadioState  ETV
attr enum  "IDLE=0, RECV=1, SLEEP=3, TRANSMIT=2"
attr enumname  RadioState
vector 351  Blackhole_Network.node[6].wlan[0].mac  State  ETV
attr enum  "BACKOFF=3, DEFER=1, IDLE=0, RECEIVE=8, WAITACK=4, WAITAIFS=2, WAITCTS=6, WAITMULTICAST=5, WAITSIFS=7"
attr enumname  Ieee80211Mac
vector 358  Blackhole_Network.node[7].wlan[0].mac  RadioState  ETV
attr enum  "IDLE=0, RECV=1, SLEEP=3, TRANSMIT=2"
attr enumname  RadioState
vector 357  Blackhole_Network.node[7].wlan[0].mac  State  ETV
attr enum  "BACKOFF=3, DEFER=1, IDLE=0, RECEIVE=8, WAITACK=4, WAITAIFS=2, WAITCTS=6, WAITMULTICAST=5, WAITSIFS=7"
attr enumname  Ieee80211Mac
vector 364  Blackhole_Network.node[8].wlan[0].mac  RadioState  ETV
attr enum  "IDLE=0, RECV=1, SLEEP=3, TRANSMIT=2"
attr enumname  RadioState
vector 363  Blackhole_Network.node[8].wlan[0].mac  State  ETV
attr enum  "BACKOFF=3, DEFER=1, IDLE=0, RECEIVE=8, WAITACK=4, WAITAIFS=2, WAITCTS=6, WAITMULTICAST=5, WAITSIFS=7"
attr enumname  Ieee80211Mac
vector 370  Blackhole_Network.node[9].wlan[0].mac  RadioState  ETV
attr enum  "IDLE=0, RECV=1, SLEEP=3, TRANSMIT=2"
attr enumname  RadioState
vector 369  Blackhole_Network.node[9].wlan[0].mac  State  ETV
attr enum  "BACKOFF=3, DEFER=1, IDLE=0, RECEIVE=8, WAITACK=4, WAITAIFS=2, WAITCTS=6, WAITMULTICAST=5, WAITSIFS=7"
attr enumname  Ieee80211Mac
vector 10  Blackhole_Network.blackhole[0].wlan[0].radio  bitrate:vector  ETV
attr interpolationmode  sample-hold
attr title  "tx bitrate, vector"
attr unit  bps
vector 12  Blackhole_Network.blackhole[0].wlan[0].radio  radioState:vector  ETV
attr interpolationmode  sample-hold
attr title  "radio state (enum), vector"
vector 11  Blackhole_Network.blackhole[0].wlan[0].radio  channelNo:vector  ETV
attr interpolationmode  sample-hold
attr title  "channel no, vector"
vector 32  Blackhole_Network.originator[0].wlan[0].radio  bitrate:vector  ETV
attr interpolationmode  sample-hold
attr title  "tx bitrate, vector"
attr unit  bps
vector 34  Blackhole_Network.originator[0].wlan[0].radio  radioState:vector  ETV
attr interpolationmode  sample-hold
attr title  "radio state (enum), vector"
vector 33  Blackhole_Network.originator[0].wlan[0].radio  channelNo:vector  ETV
attr interpolationmode  sample-hold
attr title  "channel no, vector"
vector 53  Blackhole_Network.destination[0].wlan[0].radio  bitrate:vector  ETV
attr interpolationmode  sample-hold
attr title  "tx bitrate, vector"
attr unit  bps
vector 55  Blackhole_Network.destination[0].wlan[0].radio  radioState:vector  ETV
attr interpolationmode  sample-hold
attr title  "radio state (enum), vector"
vector 54  Blackhole_Network.destination[0].wlan[0].radio  channelNo:vector  ETV
attr interpolationmode  sample-hold
attr title  "channel no, vector"
vector 77  Blackhole_Network.node[0].wlan[0].radio  bitrate:vector  ETV
attr interpolationmode  sample-hold
attr title  "tx bitrate, vector"
attr unit  bps
vector 79  Blackhole_Network.node[0].wlan[0].radio  radioState:vector  ETV
attr interpolationmode  sample-hold
attr title  "radio state (enum), vector"
vector 78  Blackhole_Network.node[0].wlan[0].radio  channelNo:vector  ETV
attr interpolationmode  sample-hold
attr title  "channel no, vector"
vector 101  Blackhole_Network.node[1].wlan[0].radio  bitrate:vector  ETV
attr interpolationmode  sample-hold
attr title  "tx bitrate, vector"
attr unit  bps
vector 103  Blackhole_Network.node[1].wlan[0].radio  radioState:vector  ETV
attr interpolationmode  sample-hold
attr title  "radio state (enum), vector"
vector 102  Blackhole_Network.node[1].wlan[0].radio  channelNo:vector  ETV
attr interpolationmode  sample-hold
attr title  "channel no, vector"
vector 125  Blackhole_Network.node[2].wlan[0].radio  bitrate:vector  ETV
attr interpolationmode  sample-hold
attr title  "tx bitrate, vector"
attr unit  bps
vector 127  Blackhole_Network.node[2].wlan[0].radio  radioState:vector  ETV
attr interpolationmode  sample-hold
attr title  "radio state (enum), vector"
vector 126  Blackhole_Network.node[2].wlan[0].radio  channelNo:vector  ETV
attr interpolationmode  sample-hold
attr title  "channel no, vector"
vector 149  Blackhole_Network.node[3].wlan[0].radio  bitrate:vector  ETV
attr interpolationmode  sample-hold
attr title  "tx bitrate, vector"
attr unit  bps
vector 151  Blackhole_Network.node[3].wlan[0].radio  radioState:vector  ETV
attr interpolationmode  sample-hold
attr title  "radio state (enum), vector"
vector 150  Blackhole_Network.node[3].wlan[0].radio  channelNo:vector  ETV
attr interpolationmode  sample-hold
attr title  "channel no, vector"
vector 173  Blackhole_Network.node[4].wlan[0].radio  bitrate:vector  ETV
attr interpolationmode  sample-hold
attr title  "tx bitrate, vector"
attr unit  bps
vector 175  Blackhole_Network.node[4].wlan[0].radio  radioState:vector  ETV
attr interpolationmode  sample-hold
attr title  "radio state (enum), vector"
vector 174  Blackhole_Network.node[4].wlan[0].radio  channelNo:vector  ETV
attr interpolationmode  sample-hold
attr title  "channel no, vector"
vector 197  Blackhole_Network.node[5].wlan[0].radio  bitrate:vector  ETV
attr interpolationmode  sample-hold
attr title  "tx bitrate, vector"
attr unit  bps
vector 199  Blackhole_Network.node[5].wlan[0].radio  radioState:vector  ETV
attr interpolationmode  sample-hold
attr title  "radio state (enum), vector"
vector 198  Blackhole_Network.node[5].wlan[0].radio  channelNo:vector  ETV
attr interpolationmode  sample-hold
attr title  "channel no, vector"
vector 221  Blackhole_Network.node[6].wlan[0].radio  bitrate:vector  ETV
attr interpolationmode  sample-hold
attr title  "tx bitrate, vector"
attr unit  bps
vector 223  Blackhole_Network.node[6].wlan[0].radio  radioState:vector  ETV
attr interpolationmode  sample-hold
attr title  "radio state (enum), vector"
vector 222  Blackhole_Network.node[6].wlan[0].radio  channelNo:vector  ETV
attr interpolationmode  sample-hold
attr title  "channel no, vector"
vector 245  Blackhole_Network.node[7].wlan[0].radio  bitrate:vector  ETV
attr interpolationmode  sample-hold
attr title  "tx bitrate, vector"
attr unit  bps
vector 247  Blackhole_Network.node[7].wlan[0].radio  radioState:vector  ETV
attr interpolationmode  sample-hold
attr title  "radio state (enum), vector"
vector 246  Blackhole_Network.node[7].wlan[0].radio  channelNo:vector  ETV
attr interpolationmode  sample-hold
attr title  "channel no, vector"
vector 269  Blackhole_Network.node[8].wlan[0].radio  bitrate:vector  ETV
attr interpolationmode  sample-hold
attr title  "tx bitrate, vector"
attr unit  bps
vector 271  Blackhole_Network.node[8].wlan[0].radio  radioState:vector  ETV
attr interpolationmode  sample-hold
attr title  "radio state (enum), vector"
vector 270  Blackhole_Network.node[8].wlan[0].radio  channelNo:vector  ETV
attr interpolationmode  sample-hold
attr title  "channel no, vector"
vector 293  Blackhole_Network.node[9].wlan[0].radio  bitrate:vector  ETV
attr interpolationmode  sample-hold
attr title  "tx bitrate, vector"
attr unit  bps
vector 295  Blackhole_Network.node[9].wlan[0].radio  radioState:vector  ETV
attr interpolationmode  sample-hold
attr title  "radio state (enum), vector"
vector 294  Blackhole_Network.node[9].wlan[0].radio  channelNo:vector  ETV
attr interpolationmode  sample-hold
attr title  "channel no, vector"
vector 129  Blackhole_Network.node[3].udpApp[0]  sentPk:vector(packetBytes)  ETV
attr interpolationmode  none
attr source  sentPk
attr title  "packets sent, vector(packetBytes)"
vector 134  Blackhole_Network.node[3].udp  sentPk:vector(packetBytes)  ETV
attr interpolationmode  none
attr source  sentPk
attr title  "packets sent, vector(packetBytes)"
vector 336  Blackhole_Network.node[3].wlan[0].mac  "throughput AC0"  ETV
vector 360  Blackhole_Network.node[7].wlan[0].mac  "throughput AC0"  ETV
vector 306  Blackhole_Network.originator[0].wlan[0].mac  "throughput AC0"  ETV
vector 362  Blackhole_Network.node[7].wlan[0].radio  snirVector  ETV
vector 308  Blackhole_Network.originator[0].wlan[0].radio  snirVector  ETV
vector 201  Blackhole_Network.node[6].udpApp[0]  sentPk:vector(packetBytes)  ETV
attr interpolationmode  none
attr source  sentPk
attr title  "packets sent, vector(packetBytes)"
vector 206  Blackhole_Network.node[6].udp  sentPk:vector(packetBytes)  ETV
attr interpolationmode  none
attr source  sentPk
attr title  "packets sent, vector(packetBytes)"
vector 354  Blackhole_Network.node[6].wlan[0].mac  "throughput AC0"  ETV
vector 312  Blackhole_Network.destination[0].wlan[0].mac  "throughput AC0"  ETV
vector 300  Blackhole_Network.blackhole[0].wlan[0].mac  "throughput AC0"  ETV
vector 314  Blackhole_Network.destination[0].wlan[0].radio  snirVector  ETV
vector 302  Blackhole_Network.blackhole[0].wlan[0].radio  snirVector  ETV
vector 318  Blackhole_Network.node[0].wlan[0].mac  "throughput AC0"  ETV
vector 320  Blackhole_Network.node[0].wlan[0].radio  snirVector  ETV
vector 356  Blackhole_Network.node[6].wlan[0].radio  snirVector  ETV
vector 301  Blackhole_Network.blackhole[0].wlan[0].mac  "Mac delay AC0"  ETV
vector 1  Blackhole_Network.blackhole[0].networkLayer.ip  rcvdPkt:vector  ETV
attr interpolationmode  none
attr title  "Number of packet received, vector"
vector 3  Blackhole_Network.blackhole[0].networkLayer.ip  blacked:vector  ETV
attr interpolationmode  none
attr title  "Number of blackhole drops, vector"
vector 355  Blackhole_Network.node[6].wlan[0].mac  "Mac delay AC0"  ETV
vector 273  Blackhole_Network.node[9].udpApp[0]  sentPk:vector(packetBytes)  ETV
attr interpolationmode  none
attr source  sentPk
attr title  "packets sent, vector(packetBytes)"
vector 278  Blackhole_Network.node[9].udp  sentPk:vector(packetBytes)  ETV
attr interpolationmode  none
attr source  sentPk
attr title  "packets sent, vector(packetBytes)"
vector 372  Blackhole_Network.node[9].wlan[0].mac  "throughput AC0"  ETV
vector 366  Blackhole_Network.node[8].wlan[0].mac  "throughput AC0"  ETV
vector 342  Blackhole_Network.node[4].wlan[0].mac  "throughput AC0"  ETV
vector 368  Blackhole_Network.node[8].wlan[0].radio  snirVector  ETV
vector 344  Blackhole_Network.node[4].wlan[0].radio  snirVector  ETV
vector 81  Blackhole_Network.node[1].udpApp[0]  sentPk:vector(packetBytes)  ETV
attr interpolationmode  none
attr source  sentPk
attr title  "packets sent, vector(packetBytes)"
vector 86  Blackhole_Network.node[1].udp  sentPk:vector(packetBytes)  ETV
attr interpolationmode  none
attr source  sentPk
attr title  "packets sent, vector(packetBytes)"
vector 324  Blackhole_Network.node[1].wlan[0].mac  "throughput AC0"  ETV
vector 348  Blackhole_Network.node[5].wlan[0].mac  "throughput AC0"  ETV
vector 350  Blackhole_Network.node[5].wlan[0].radio  snirVector  ETV
vector 15  Blackhole_Network.originator[0].udpApp[0]  sentPk:vector(packetBytes)  ETV
attr interpolationmode  none
attr source  sentPk
attr title  "packets sent, vector(packetBytes)"
vector 17  Blackhole_Network.originator[0].udp  sentPk:vector(packetBytes)  ETV
attr interpolationmode  none
attr source  sentPk
attr title  "packets sent, vector(packetBytes)"
vector 330  Blackhole_Network.node[2].wlan[0].mac  "throughput AC0"  ETV
vector 332  Blackhole_Network.node[2].wlan[0].radio  snirVector  ETV
vector 338  Blackhole_Network.node[3].wlan[0].radio  snirVector  ETV
vector 105  Blackhole_Network.node[2].udpApp[0]  sentPk:vector(packetBytes)  ETV
attr interpolationmode  none
attr source  sentPk
attr title  "packets sent, vector(packetBytes)"
vector 110  Blackhole_Network.node[2].udp  sentPk:vector(packetBytes)  ETV
attr interpolationmode  none
attr source  sentPk
attr title  "packets sent, vector(packetBytes)"
vector 299  Blackhole_Network.blackhole[0].wlan[0].mac  "jitter AC0"  ETV
vector 353  Blackhole_Network.node[6].wlan[0].mac  "jitter AC0"  ETV
vector 361  Blackhole_Network.node[7].wlan[0].mac  "Mac delay AC0"  ETV
vector 236  Blackhole_Network.node[7].networkLayer.ip  rcvdPkt:vector  ETV
attr interpolationmode  none
attr title  "Number of packet received, vector"
vector 337  Blackhole_Network.node[3].wlan[0].mac  "Mac delay AC0"  ETV
vector 359  Blackhole_Network.node[7].wlan[0].mac  "jitter AC0"  ETV
vector 374  Blackhole_Network.node[9].wlan[0].radio  snirVector  ETV
vector 225  Blackhole_Network.node[7].udpApp[0]  sentPk:vector(packetBytes)  ETV
attr interpolationmode  none
attr source  sentPk
attr title  "packets sent, vector(packetBytes)"
vector 230  Blackhole_Network.node[7].udp  sentPk:vector(packetBytes)  ETV
attr interpolationmode  none
attr source  sentPk
attr title  "packets sent, vector(packetBytes)"
vector 335  Blackhole_Network.node[3].wlan[0].mac  "jitter AC0"  ETV
vector 326  Blackhole_Network.node[1].wlan[0].radio  snirVector  ETV
vector 116  Blackhole_Network.node[2].networkLayer.ip  rcvdPkt:vector  ETV
attr interpolationmode  none
attr title  "Number of packet received, vector"
vector 111  Blackhole_Network.node[2].udp  rcvdPk:vector(packetBytes)  ETV
attr interpolationmode  none
attr source  rcvdPk
attr title  "packets received, vector(packetBytes)"
vector 112  Blackhole_Network.node[2].udp  passedUpPk:vector(count)  ETV
attr interpolationmode  none
attr title  "packets passed up, vector(count)"
vector 106  Blackhole_Network.node[2].udpApp[0]  rcvdPk:vector(packetBytes)  ETV
attr interpolationmode  none
attr source  rcvdPk
attr title  "packets received, vector(packetBytes)"
vector 109  Blackhole_Network.node[2].udpApp[0]  endToEndDelay:vector  ETV
attr interpolationmode  none
attr source  messageAge(rcvdPk)
attr title  "delay, vector"
attr unit  s
vector 307  Blackhole_Network.originator[0].wlan[0].mac  "Mac delay AC0"  ETV
vector 35  Blackhole_Network.originator[0].wlan[0].radio  lossRate:vector  ETV
attr interpolationmode  backward-sample-hold
attr title  "packet loss rate, vector"
vector 331  Blackhole_Network.node[2].wlan[0].mac  "Mac delay AC0"  ETV
vector 248  Blackhole_Network.node[7].wlan[0].radio  lossRate:vector  ETV
attr interpolationmode  backward-sample-hold
attr title  "packet loss rate, vector"
vector 153  Blackhole_Network.node[4].udpApp[0]  sentPk:vector(packetBytes)  ETV
attr interpolationmode  none
attr source  sentPk
attr title  "packets sent, vector(packetBytes)"
vector 158  Blackhole_Network.node[4].udp  sentPk:vector(packetBytes)  ETV
attr interpolationmode  none
attr source  sentPk
attr title  "packets sent, vector(packetBytes)"
vector 305  Blackhole_Network.originator[0].wlan[0].mac  "jitter AC0"  ETV
vector 329  Blackhole_Network.node[2].wlan[0].mac  "jitter AC0"  ETV
vector 128  Blackhole_Network.node[2].wlan[0].radio  lossRate:vector  ETV
attr interpolationmode  backward-sample-hold
attr title  "packet loss rate, vector"
vector 152  Blackhole_Network.node[3].wlan[0].radio  lossRate:vector  ETV
attr interpolationmode  backward-sample-hold
attr title  "packet loss rate, vector"
vector 13  Blackhole_Network.blackhole[0].wlan[0].radio  lossRate:vector  ETV
attr interpolationmode  backward-sample-hold
attr title  "packet loss rate, vector"
vector 177  Blackhole_Network.node[5].udpApp[0]  sentPk:vector(packetBytes)  ETV
attr interpolationmode  none
attr source  sentPk
attr title  "packets sent, vector(packetBytes)"
vector 182  Blackhole_Network.node[5].udp  sentPk:vector(packetBytes)  ETV
attr interpolationmode  none
attr source  sentPk
attr title  "packets sent, vector(packetBytes)"
vector 57  Blackhole_Network.node[0].udpApp[0]  sentPk:vector(packetBytes)  ETV
attr interpolationmode  none
attr source  sentPk
attr title  "packets sent, vector(packetBytes)"
vector 62  Blackhole_Network.node[0].udp  sentPk:vector(packetBytes)  ETV
attr interpolationmode  none
attr source  sentPk
attr title  "packets sent, vector(packetBytes)"
vector 319  Blackhole_Network.node[0].wlan[0].mac  "Mac delay AC0"  ETV
vector 249  Blackhole_Network.node[8].udpApp[0]  sentPk:vector(packetBytes)  ETV
attr interpolationmode  none
attr source  sentPk
attr title  "packets sent, vector(packetBytes)"
vector 254  Blackhole_Network.node[8].udp  sentPk:vector(packetBytes)  ETV
attr interpolationmode  none
attr source  sentPk
attr title  "packets sent, vector(packetBytes)"
vector 164  Blackhole_Network.node[4].networkLayer.ip  rcvdPkt:vector  ETV
attr interpolationmode  none
attr title  "Number of packet received, vector"
vector 159  Blackhole_Network.node[4].udp  rcvdPk:vector(packetBytes)  ETV
attr interpolationmode  none
attr source  rcvdPk
attr title  "packets received, vector(packetBytes)"
vector 160  Blackhole_Network.node[4].udp  passedUpPk:vector(count)  ETV
attr interpolationmode  none
attr title  "packets passed up, vector(count)"
vector 154  Blackhole_Network.node[4].udpApp[0]  rcvdPk:vector(packetBytes)  ETV
attr interpolationmode  none
attr source  rcvdPk
attr title  "packets received, vector(packetBytes)"
vector 157  Blackhole_Network.node[4].udpApp[0]  endToEndDelay:vector  ETV
attr interpolationmode  none
attr source  messageAge(rcvdPk)
attr title  "delay, vector"
attr unit  s
vector 367  Blackhole_Network.node[8].wlan[0].mac  "Mac delay AC0"  ETV
vector 317  Blackhole_Network.node[0].wlan[0].mac  "jitter AC0"  ETV
vector 56  Blackhole_Network.destination[0].wlan[0].radio  lossRate:vector  ETV
attr interpolationmode  backward-sample-hold
attr title  "packet loss rate, vector"
vector 365  Blackhole_Network.node[8].wlan[0].mac  "jitter AC0"  ETV
vector 80  Blackhole_Network.node[0].wlan[0].radio  lossRate:vector  ETV
attr interpolationmode  backward-sample-hold
attr title  "packet loss rate, vector"
vector 224  Blackhole_Network.node[6].wlan[0].radio  lossRate:vector  ETV
attr interpolationmode  backward-sample-hold
attr title  "packet loss rate, vector"
vector 200  Blackhole_Network.node[5].wlan[0].radio  lossRate:vector  ETV
attr interpolationmode  backward-sample-hold
attr title  "packet loss rate, vector"
vector 296  Blackhole_Network.node[9].wlan[0].radio  lossRate:vector  ETV
attr interpolationmode  backward-sample-hold
attr title  "packet loss rate, vector"
vector 176  Blackhole_Network.node[4].wlan[0].radio  lossRate:vector  ETV
attr interpolationmode  backward-sample-hold
attr title  "packet loss rate, vector"
vector 272  Blackhole_Network.node[8].wlan[0].radio  lossRate:vector  ETV
attr interpolationmode  backward-sample-hold
attr title  "packet loss rate, vector"
1	24313 1206 479 19254 0.964393434816 3.461862165139 46 1 46 1081 33511
3	25519 1206 479 19254 0.964393434816 3.461862165139 46 1 46 1081 33511
8	26725 9 0 0 0 0 1 0 0 0 0
10	26734 17 0 0 0 0 1 54000000 54000000 54000000 2.916e+015
11	26751 10 0 0 0 0 1 0 0 0 0
12	26761 30830 0 19327 0 3.473328445496 1173 0 2 794 1210
13	57591 83 4855 15287 1.339025219569 2.839368362978 3 0 0.04 0.04 0.0016
15	57674 142 643 16296 1.044883177382 3.047708117502 5 512 512 2560 1310720
17	57816 142 644 16297 1.044883177382 3.047708117502 5 520 520 2600 1352000
30	57958 10 0 0 0 0 1 0 0 0 0
32	57968 17 0 0 0 0 1 54000000 54000000 54000000 2.916e+015
33	57985 10 0 0 0 0 1 0 0 0 0
34	57995 22858 0 19319 0 3.473327991653 869 0 2 466 530
35	80853 82 3935 14052 1.310237111268 2.589727101647 3 0 0.04 0.04 0.0016
51	80935 10 0 0 0 0 1 0 0 0 0
53	80945 17 0 0 0 0 1 54000000 54000000 54000000 2.916e+015
54	80962 10 0 0 0 0 1 0 0 0 0
55	80972 15798 0 19272 0 3.461896629355 601 0 1 300 300
56	96770 80 6410 19272 1.569038062125 3.461896629355 3 0 0 0 0
57	96850 258 5069 18859 1.391773001756 3.395950012345 9 512 512 4608 2359296
62	97108 258 5070 18860 1.391773001756 3.395950012345 9 520 520 4680 2433600
75	97366 10 0 0 0 0 1 0 0 0 0
77	97376 17 0 0 0 0 1 54000000 54000000 54000000 2.916e+015
78	97393 10 0 0 0 0 1 0 0 0 0
79	97403 13202 0 19274 0 3.461896893546 501 0 2 292 376
80	110605 53 9344 18837 1.963055422365 3.339316941622 2 0 0 0 0
81	110658 283 569 17754 0.977665111655 3.227758748518 10 512 512 5120 2621440
86	110941 283 570 17755 0.977665111655 3.227758748518 10 520 520 5200 2704000
99	111224 10 0 0 0 0 1 0 0 0 0
101	111234 18 0 0 0 0 1 54000000 54000000 54000000 2.916e+015
102	111252 11 0 0 0 0 1 0 0 0 0
103	111263 3281 0 18088 0 3.294939108551 121 0 2 90 150
105	114544 295 703 18278 1.068044563755 3.315790279722 10 512 512 5120 2621440
106	114839 264 2587 17721 1.222513157397 3.223279701135 9 512 512 4608 2359296
109	115103 362 2587 17721 1.222513157397 3.223279701135 9 0.000251454547 0.00188050581 0.003892318364 4.0422258221025e-006
110	115465 295 704 18279 1.068044563755 3.315790279722 10 520 520 5200 2704000
111	115760 264 2586 17720 1.222513157397 3.223279701135 9 520 520 4680 2433600
112	116024 246 2586 17720 1.222513157397 3.223279701135 9 1 9 45 285
116	116270 246 2583 17717 1.222513157397 3.223279701135 9 1 9 45 285
123	116516 11 0 0 0 0 1 0 0 0 0
125	116527 18 0 0 0 0 1 54000000 54000000 54000000 2.916e+015
126	116545 11 0 0 0 0 1 0 0 0 0
127	116556 22215 0 19322 0 3.473328134058 813 0 2 496 676
128	138771 85 4779 18333 1.338855467935 3.31590724779 3 0 0.02 0.02 0.0004
129	138856 323 119 18570 0.83739616163 3.338510635342 11 512 512 5632 2883584
134	139179 323 120 18571 0.83739616163 3.338510635342 11 520 520 5720 2974400
147	139502 11 0 0 0 0 1 0 0 0 0
149	139513 18 0 0 0 0 1 54000000 54000000 54000000 2.916e+015
150	139531 11 0 0 0 0 1 0 0 0 0
151	139542 19687 0 19324 0 3.473328381653 721 0 2 416 528
152	159229 86 4782 19324 1.338855687396 3.473328381653 3 0 0.02 0.02 0.0004
153	159315 266 4664 18564 1.33261984284 3.330161060019 9 512 512 4608 2359296
154	159581 266 5518 19118 1.444920282391 3.446762289773 9 512 512 4608 2359296
157	159847 365 5518 19118 1.444920282391 3.446762289773 9 0.000251315485 0.000251363776 0.002262061257 5.6854679445882e-007
158	160212 266 4665 18565 1.33261984284 3.330161060019 9 520 520 4680 2433600
159	160478 266 5517 19117 1.444920282391 3.446762289773 9 520 520 4680 2433600
160	160744 248 5517 19117 1.444920282391 3.446762289773 9 1 9 45 285
164	160992 248 5514 19114 1.444920282391 3.446762289773 9 1 9 45 285
171	161240 11 0 0 0 0 1 0 0 0 0
173	161251 18 0 0 0 0 1 54000000 54000000 54000000 2.916e+015
174	161269 11 0 0 0 0 1 0 0 0 0
175	161280 10091 0 19132 0 3.446796289773 369 0 2 248 376
176	171371 31 15924 15924 2.945609424228 2.945609424228 1 0.02 0.02 0.02 0.0004
177	171402 267 5009 18853 1.370087251067 3.371239626336 9 512 512 4608 2359296
182	171669 267 5010 18854 1.370087251067 3.371239626336 9 520 520 4680 2433600
195	171936 11 0 0 0 0 1 0 0 0 0
197	171947 18 0 0 0 0 1 54000000 54000000 54000000 2.916e+015
198	171965 11 0 0 0 0 1 0 0 0 0
199	171976 10099 0 19138 0 3.446796850624 369 0 2 212 268
200	182075 30 13077 13077 2.53858552172 2.53858552172 1 0.02 0.02 0.02 0.0004
201	182105 324 186 19151 0.961479362798 3.461609722329 11 512 512 5632 2883584
206	182429 324 187 19152 0.961479362798 3.461609722329 11 520 520 5720 2974400
219	182753 11 0 0 0 0 1 0 0 0 0
221	182764 18 0 0 0 0 1 54000000 54000000 54000000 2.916e+015
222	182782 11 0 0 0 0 1 0 0 0 0
223	182793 14135 0 19278 0 3.461896979409 517 0 2 308 408
224	196928 55 9346 18841 1.963055461965 3.339317024464 2 0 0 0 0
225	196983 295 2283 19296 1.220632651587 3.47325565084 10 512 512 5120 2621440
230	197278 295 2284 19297 1.220632651587 3.47325565084 10 520 520 5200 2704000
236	197573 734 1505 18671 1.085675383489 3.338762826206 26 1 26 351 6201
243	198307 11 0 0 0 0 1 0 0 0 0
245	198318 18 0 0 0 0 1 54000000 54000000 54000000 2.916e+015
246	198336 11 0 0 0 0 1 0 0 0 0
247	198347 36675 0 19318 0 3.47332765084 1341 0 2 954 1522
248	235022 86 4324 14855 1.311528948652 2.816786443234 3 0 0.02 0.02 0.0004
249	235108 266 5411 19011 1.444668918615 3.446510974288 9 512 512 4608 2359296
254	235374 266 5412 19012 1.444668918615 3.446510974288 9 520 520 4680 2433600
267	235640 11 0 0 0 0 1 0 0 0 0
269	235651 18 0 0 0 0 1 54000000 54000000 54000000 2.916e+015
270	235669 11 0 0 0 0 1 0 0 0 0
271	235680 10103 0 19134 0 3.446796728268 369 0 2 248 376
272	245783 31 15960 15960 2.945653866735 2.945653866735 1 0.02 0.02 0.02 0.0004
273	245814 322 515 19290 0.97360042273 3.472510324736 11 512 512 5632 2883584
278	246136 322 516 19291 0.97360042273 3.472510324736 11 520 520 5720 2974400
291	246458 11 0 0 0 0 1 0 0 0 0
293	246469 18 0 0 0 0 1 54000000 54000000 54000000 2.916e+015
294	246487 11 0 0 0 0 1 0 0 0 0
295	246498 8559 0 19136 0 3.446796779586 313 0 2 184 240
296	255057 31 15894 15894 2.945485031743 2.945485031743 1 0.02 0.02 0.02 0.0004
297	255088 52900 0 19327 0 3.473328445496 1940 0 7 1994 12538