file 259493 1613685154                                          
version 2
run General-0-20210218-22:51:36-17992
attr configname General
attr datetime 20210218-22:51:36
attr experiment General
attr inifile Blackhole.ini
attr iterationvars $mobility=5
attr iterationvars2 "$mobility=5, $repetition=0"
attr measurement $mobility=5
attr mobility 5
attr network Blackhole_Network
attr processid 17992
attr repetition 0
attr replication #0
attr resultdir results
attr runnumber 0
attr seedset 0

vector 8  Blackhole_Network.blackhole[0].wlan[0].mgmt  dataQueueLen:vector  ETV
attr interpolationmode  sample-hold
attr title  "data queue length, vector"
vector 30  Blackhole_Network.originator[0].wlan[0].mgmt  dataQueueLen:vector  ETV
attr interpolationmode  sample-hold
attr title  "data queue length, vector"
vector 51  Blackhole_Network.destination[0].wlan[0].mgmt  dataQueueLen:vector  ETV
attr interpolationmode  sample-hold
attr title  "data queue length, vector"
vector 75  Blackhole_Network.node[0].wlan[0].mgmt  dataQueueLen:vector  ETV
attr interpolationmode  sample-hold
attr title  "data queue length, vector"
vector 99  Blackhole_Network.node[1].wlan[0].mgmt  dataQueueLen:vector  ETV
attr interpolationmode  sample-hold
attr title  "data queue length, vector"
vector 123  Blackhole_Network.node[2].wlan[0].mgmt  dataQueueLen:vector  ETV
attr interpolationmode  sample-hold
attr title  "data queue length, vector"
vector 147  Blackhole_Network.node[3].wlan[0].mgmt  dataQueueLen:vector  ETV
attr interpolationmode  sample-hold
attr title  "data queue length, vector"
vector 171  Blackhole_Network.node[4].wlan[0].mgmt  dataQueueLen:vector  ETV
attr interpolationmode  sample-hold
attr title  "data queue length, vector"
vector 195  Blackhole_Network.node[5].wlan[0].mgmt  dataQueueLen:vector  ETV
attr interpolationmode  sample-hold
attr title  "data queue length, vector"
vector 219  Blackhole_Network.node[6].wlan[0].mgmt  dataQueueLen:vector  ETV
attr interpolationmode  sample-hold
attr title  "data queue length, vector"
vector 243  Blackhole_Network.node[7].wlan[0].mgmt  dataQueueLen:vector  ETV
attr interpolationmode  sample-hold
attr title  "data queue length, vector"
vector 267  Blackhole_Network.node[8].wlan[0].mgmt  dataQueueLen:vector  ETV
attr interpolationmode  sample-hold
attr title  "data queue length, vector"
vector 291  Blackhole_Network.node[9].wlan[0].mgmt  dataQueueLen:vector  ETV
attr interpolationmode  sample-hold
attr title  "data queue length, vector"
vector 298  Blackhole_Network.blackhole[0].wlan[0].mac  RadioState  ETV
attr enum  "IDLE=0, RECV=1, SLEEP=3, TRANSMIT=2"
attr enumname  RadioState
vector 297  Blackhole_Network.blackhole[0].wlan[0].mac  State  ETV
attr enum  "BACKOFF=3, DEFER=1, IDLE=0, RECEIVE=8, WAITACK=4, WAITAIFS=2, WAITCTS=6, WAITMULTICAST=5, WAITSIFS=7"
attr enumname  Ieee80211Mac
vector 304  Blackhole_Network.originator[0].wlan[0].mac  RadioState  ETV
attr enum  "IDLE=0, RECV=1, SLEEP=3, TRANSMIT=2"
attr enumname  RadioState
vector 303  Blackhole_Network.originator[0].wlan[0].mac  State  ETV
attr enum  "BACKOFF=3, DEFER=1, IDLE=0, RECEIVE=8, WAITACK=4, WAITAIFS=2, WAITCTS=6, WAITMULTICAST=5, WAITSIFS=7"
attr enumname  Ieee80211Mac
vector 310  Blackhole_Network.destination[0].wlan[0].mac  RadioState  ETV
attr enum  "IDLE=0, RECV=1, SLEEP=3, TRANSMIT=2"
attr enumname  RadioState
vector 309  Blackhole_Network.destination[0].wlan[0].mac  State  ETV
attr enum  "BACKOFF=3, DEFER=1, IDLE=0, RECEIVE=8, WAITACK=4, WAITAIFS=2, WAITCTS=6, WAITMULTICAST=5, WAITSIFS=7"
attr enumname  Ieee80211Mac
vector 316  Blackhole_Network.node[0].wlan[0].mac  RadioState  ETV
attr enum  "IDLE=0, RECV=1, SLEEP=3, TRANSMIT=2"
attr enumname  RadioState
vector 315  Blackhole_Network.node[0].wlan[0].mac  State  ETV
attr enum  "BACKOFF=3, DEFER=1, IDLE=0, RECEIVE=8, WAITACK=4, WAITAIFS=2, WAITCTS=6, WAITMULTICAST=5, WAITSIFS=7"
attr enumname  Ieee80211Mac
vector 322  Blackhole_Network.node[1].wlan[0].mac  RadioState  ETV
attr enum  "IDLE=0, RECV=1, SLEEP=3, TRANSMIT=2"
attr enumname  RadioState
vector 321  Blackhole_Network.node[1].wlan[0].mac  State  ETV
attr enum  "BACKOFF=3, DEFER=1, IDLE=0, RECEIVE=8, WAITACK=4, WAITAIFS=2, WAITCTS=6, WAITMULTICAST=5, WAITSIFS=7"
attr enumname  Ieee80211Mac
vector 328  Blackhole_Network.node[2].wlan[0].mac  RadioState  ETV
attr enum  "IDLE=0, RECV=1, SLEEP=3, TRANSMIT=2"
attr enumname  RadioState
vector 327  Blackhole_Network.node[2].wlan[0].mac  State  ETV
attr enum  "BACKOFF=3, DEFER=1, IDLE=0, RECEIVE=8, WAITACK=4, WAITAIFS=2, WAITCTS=6, WAITMULTICAST=5, WAITSIFS=7"
attr enumname  Ieee80211Mac
vector 334  Blackhole_Network.node[3].wlan[0].mac  RadioState  ETV
attr enum  "IDLE=0, RECV=1, SLEEP=3, TRANSMIT=2"
attr enumname  RadioState
vector 333  Blackhole_Network.node[3].wlan[0].mac  State  ETV
attr enum  "BACKOFF=3, DEFER=1, IDLE=0, RECEIVE=8, WAITACK=4, WAITAIFS=2, WAITCTS=6, WAITMULTICAST=5, WAITSIFS=7"
attr enumname  Ieee80211Mac
vector 340  Blackhole_Network.node[4].wlan[0].mac  RadioState  ETV
attr enum  "IDLE=0, RECV=1, SLEEP=3, TRANSMIT=2"
attr enumname  RadioState
vector 339  Blackhole_Network.node[4].wlan[0].mac  State  ETV
attr enum  "BACKOFF=3, DEFER=1, IDLE=0, RECEIVE=8, WAITACK=4, WAITAIFS=2, WAITCTS=6, WAITMULTICAST=5, WAITSIFS=7"
attr enumname  Ieee80211Mac
vector 346  Blackhole_Network.node[5].wlan[0].mac  RadioState  ETV
attr enum  "IDLE=0, RECV=1, SLEEP=3, TRANSMIT=2"
attr enumname  RadioState
vector 345  Blackhole_Network.node[5].wlan[0].mac  State  ETV
attr enum  "BACKOFF=3, DEFER=1, IDLE=0, RECEIVE=8, WAITACK=4, WAITAIFS=2, WAITCTS=6, WAITMULTICAST=5, WAITSIFS=7"
attr enumname  Ieee80211Mac
vector 352  Blackhole_Network.node[6].wlan[0].mac  RadioState  ETV
attr enum  "IDLE=0, RECV=1, SLEEP=3, TRANSMIT=2"
attr enumname  RadioState
vector 351  Blackhole_Network.node[6].wlan[0].mac  State  ETV
attr enum  "BACKOFF=3, DEFER=1, IDLE=0, RECEIVE=8, WAITACK=4, WAITAIFS=2, WAITCTS=6, WAITMULTICAST=5, WAITSIFS=7"
attr enumname  Ieee80211Mac
vector 358  Blackhole_Network.node[7].wlan[0].mac  RadioState  ETV
attr enum  "IDLE=0, RECV=1, SLEEP=3, TRANSMIT=2"
attr enumname  RadioState
vector 357  Blackhole_Network.node[7].wlan[0].mac  State  ETV
attr enum  "BACKOFF=3, DEFER=1, IDLE=0, RECEIVE=8, WAITACK=4, WAITAIFS=2, WAITCTS=6, WAITMULTICAST=5, WAITSIFS=7"
attr enumname  Ieee80211Mac
vector 364  Blackhole_Network.node[8].wlan[0].mac  RadioState  ETV
attr enum  "IDLE=0, RECV=1, SLEEP=3, TRANSMIT=2"
attr enumname  RadioState
vector 363  Blackhole_Network.node[8].wlan[0].mac  State  ETV
attr enum  "BACKOFF=3, DEFER=1, IDLE=0, RECEIVE=8, WAITACK=4, WAITAIFS=2, WAITCTS=6, WAITMULTICAST=5, WAITSIFS=7"
attr enumname  Ieee80211Mac
vector 370  Blackhole_Network.node[9].wlan[0].mac  RadioState  ETV
attr enum  "IDLE=0, RECV=1, SLEEP=3, TRANSMIT=2"
attr enumname  RadioState
vector 369  Blackhole_Network.node[9].wlan[0].mac  State  ETV
attr enum  "BACKOFF=3, DEFER=1, IDLE=0, RECEIVE=8, WAITACK=4, WAITAIFS=2, WAITCTS=6, WAITMULTICAST=5, WAITSIFS=7"
attr enumname  Ieee80211Mac
vector 10  Blackhole_Network.blackhole[0].wlan[0].radio  bitrate:vector  ETV
attr interpolationmode  sample-hold
attr title  "tx bitrate, vector"
attr unit  bps
vector 12  Blackhole_Network.blackhole[0].wlan[0].radio  radioState:vector  ETV
attr interpolationmode  sample-hold
attr title  "radio state (enum), vector"
vector 11  Blackhole_Network.blackhole[0].wlan[0].radio  channelNo:vector  ETV
attr interpolationmode  sample-hold
attr title  "channel no, vector"
vector 32  Blackhole_Network.originator[0].wlan[0].radio  bitrate:vector  ETV
attr interpolationmode  sample-hold
attr title  "tx bitrate, vector"
attr unit  bps
vector 34  Blackhole_Network.originator[0].wlan[0].radio  radioState:vector  ETV
attr interpolationmode  sample-hold
attr title  "radio state (enum), vector"
vector 33  Blackhole_Network.originator[0].wlan[0].radio  channelNo:vector  ETV
attr interpolationmode  sample-hold
attr title  "channel no, vector"
vector 53  Blackhole_Network.destination[0].wlan[0].radio  bitrate:vector  ETV
attr interpolationmode  sample-hold
attr title  "tx bitrate, vector"
attr unit  bps
vector 55  Blackhole_Network.destination[0].wlan[0].radio  radioState:vector  ETV
attr interpolationmode  sample-hold
attr title  "radio state (enum), vector"
vector 54  Blackhole_Network.destination[0].wlan[0].radio  channelNo:vector  ETV
attr interpolationmode  sample-hold
attr title  "channel no, vector"
vector 77  Blackhole_Network.node[0].wlan[0].radio  bitrate:vector  ETV
attr interpolationmode  sample-hold
attr title  "tx bitrate, vector"
attr unit  bps
vector 79  Blackhole_Network.node[0].wlan[0].radio  radioState:vector  ETV
attr interpolationmode  sample-hold
attr title  "radio state (enum), vector"
vector 78  Blackhole_Network.node[0].wlan[0].radio  channelNo:vector  ETV
attr interpolationmode  sample-hold
attr title  "channel no, vector"
vector 101  Blackhole_Network.node[1].wlan[0].radio  bitrate:vector  ETV
attr interpolationmode  sample-hold
attr title  "tx bitrate, vector"
attr unit  bps
vector 103  Blackhole_Network.node[1].wlan[0].radio  radioState:vector  ETV
attr interpolationmode  sample-hold
attr title  "radio state (enum), vector"
vector 102  Blackhole_Network.node[1].wlan[0].radio  channelNo:vector  ETV
attr interpolationmode  sample-hold
attr title  "channel no, vector"
vector 125  Blackhole_Network.node[2].wlan[0].radio  bitrate:vector  ETV
attr interpolationmode  sample-hold
attr title  "tx bitrate, vector"
attr unit  bps
vector 127  Blackhole_Network.node[2].wlan[0].radio  radioState:vector  ETV
attr interpolationmode  sample-hold
attr title  "radio state (enum), vector"
vector 126  Blackhole_Network.node[2].wlan[0].radio  channelNo:vector  ETV
attr interpolationmode  sample-hold
attr title  "channel no, vector"
vector 149  Blackhole_Network.node[3].wlan[0].radio  bitrate:vector  ETV
attr interpolationmode  sample-hold
attr title  "tx bitrate, vector"
attr unit  bps
vector 151  Blackhole_Network.node[3].wlan[0].radio  radioState:vector  ETV
attr interpolationmode  sample-hold
attr title  "radio state (enum), vector"
vector 150  Blackhole_Network.node[3].wlan[0].radio  channelNo:vector  ETV
attr interpolationmode  sample-hold
attr title  "channel no, vector"
vector 173  Blackhole_Network.node[4].wlan[0].radio  bitrate:vector  ETV
attr interpolationmode  sample-hold
attr title  "tx bitrate, vector"
attr unit  bps
vector 175  Blackhole_Network.node[4].wlan[0].radio  radioState:vector  ETV
attr interpolationmode  sample-hold
attr title  "radio state (enum), vector"
vector 174  Blackhole_Network.node[4].wlan[0].radio  channelNo:vector  ETV
attr interpolationmode  sample-hold
attr title  "channel no, vector"
vector 197  Blackhole_Network.node[5].wlan[0].radio  bitrate:vector  ETV
attr interpolationmode  sample-hold
attr title  "tx bitrate, vector"
attr unit  bps
vector 199  Blackhole_Network.node[5].wlan[0].radio  radioState:vector  ETV
attr interpolationmode  sample-hold
attr title  "radio state (enum), vector"
vector 198  Blackhole_Network.node[5].wlan[0].radio  channelNo:vector  ETV
attr interpolationmode  sample-hold
attr title  "channel no, vector"
vector 221  Blackhole_Network.node[6].wlan[0].radio  bitrate:vector  ETV
attr interpolationmode  sample-hold
attr title  "tx bitrate, vector"
attr unit  bps
vector 223  Blackhole_Network.node[6].wlan[0].radio  radioState:vector  ETV
attr interpolationmode  sample-hold
attr title  "radio state (enum), vector"
vector 222  Blackhole_Network.node[6].wlan[0].radio  channelNo:vector  ETV
attr interpolationmode  sample-hold
attr title  "channel no, vector"
vector 245  Blackhole_Network.node[7].wlan[0].radio  bitrate:vector  ETV
attr interpolationmode  sample-hold
attr title  "tx bitrate, vector"
attr unit  bps
vector 247  Blackhole_Network.node[7].wlan[0].radio  radioState:vector  ETV
attr interpolationmode  sample-hold
attr title  "radio state (enum), vector"
vector 246  Blackhole_Network.node[7].wlan[0].radio  channelNo:vector  ETV
attr interpolationmode  sample-hold
attr title  "channel no, vector"
vector 269  Blackhole_Network.node[8].wlan[0].radio  bitrate:vector  ETV
attr interpolationmode  sample-hold
attr title  "tx bitrate, vector"
attr unit  bps
vector 271  Blackhole_Network.node[8].wlan[0].radio  radioState:vector  ETV
attr interpolationmode  sample-hold
attr title  "radio state (enum), vector"
vector 270  Blackhole_Network.node[8].wlan[0].radio  channelNo:vector  ETV
attr interpolationmode  sample-hold
attr title  "channel no, vector"
vector 293  Blackhole_Network.node[9].wlan[0].radio  bitrate:vector  ETV
attr interpolationmode  sample-hold
attr title  "tx bitrate, vector"
attr unit  bps
vector 295  Blackhole_Network.node[9].wlan[0].radio  radioState:vector  ETV
attr interpolationmode  sample-hold
attr title  "radio state (enum), vector"
vector 294  Blackhole_Network.node[9].wlan[0].radio  channelNo:vector  ETV
attr interpolationmode  sample-hold
attr title  "channel no, vector"
vector 129  Blackhole_Network.node[3].udpApp[0]  sentPk:vector(packetBytes)  ETV
attr interpolationmode  none
attr source  sentPk
attr title  "packets sent, vector(packetBytes)"
vector 134  Blackhole_Network.node[3].udp  sentPk:vector(packetBytes)  ETV
attr interpolationmode  none
attr source  sentPk
attr title  "packets sent, vector(packetBytes)"
vector 336  Blackhole_Network.node[3].wlan[0].mac  "throughput AC0"  ETV
vector 360  Blackhole_Network.node[7].wlan[0].mac  "throughput AC0"  ETV
vector 306  Blackhole_Network.originator[0].wlan[0].mac  "throughput AC0"  ETV
vector 362  Blackhole_Network.node[7].wlan[0].radio  snirVector  ETV
vector 308  Blackhole_Network.originator[0].wlan[0].radio  snirVector  ETV
vector 201  Blackhole_Network.node[6].udpApp[0]  sentPk:vector(packetBytes)  ETV
attr interpolationmode  none
attr source  sentPk
attr title  "packets sent, vector(packetBytes)"
vector 206  Blackhole_Network.node[6].udp  sentPk:vector(packetBytes)  ETV
attr interpolationmode  none
attr source  sentPk
attr title  "packets sent, vector(packetBytes)"
vector 354  Blackhole_Network.node[6].wlan[0].mac  "throughput AC0"  ETV
vector 312  Blackhole_Network.destination[0].wlan[0].mac  "throughput AC0"  ETV
vector 300  Blackhole_Network.blackhole[0].wlan[0].mac  "throughput AC0"  ETV
vector 314  Blackhole_Network.destination[0].wlan[0].radio  snirVector  ETV
vector 302  Blackhole_Network.blackhole[0].wlan[0].radio  snirVector  ETV
vector 273  Blackhole_Network.node[9].udpApp[0]  sentPk:vector(packetBytes)  ETV
attr interpolationmode  none
attr source  sentPk
attr title  "packets sent, vector(packetBytes)"
vector 278  Blackhole_Network.node[9].udp  sentPk:vector(packetBytes)  ETV
attr interpolationmode  none
attr source  sentPk
attr title  "packets sent, vector(packetBytes)"
vector 372  Blackhole_Network.node[9].wlan[0].mac  "throughput AC0"  ETV
vector 366  Blackhole_Network.node[8].wlan[0].mac  "throughput AC0"  ETV
vector 342  Blackhole_Network.node[4].wlan[0].mac  "throughput AC0"  ETV
vector 368  Blackhole_Network.node[8].wlan[0].radio  snirVector  ETV
vector 344  Blackhole_Network.node[4].wlan[0].radio  snirVector  ETV
vector 81  Blackhole_Network.node[1].udpApp[0]  sentPk:vector(packetBytes)  ETV
attr interpolationmode  none
attr source  sentPk
attr title  "packets sent, vector(packetBytes)"
vector 86  Blackhole_Network.node[1].udp  sentPk:vector(packetBytes)  ETV
attr interpolationmode  none
attr source  sentPk
attr title  "packets sent, vector(packetBytes)"
vector 324  Blackhole_Network.node[1].wlan[0].mac  "throughput AC0"  ETV
vector 348  Blackhole_Network.node[5].wlan[0].mac  "throughput AC0"  ETV
vector 350  Blackhole_Network.node[5].wlan[0].radio  snirVector  ETV
vector 15  Blackhole_Network.originator[0].udpApp[0]  sentPk:vector(packetBytes)  ETV
attr interpolationmode  none
attr source  sentPk
attr title  "packets sent, vector(packetBytes)"
vector 17  Blackhole_Network.originator[0].udp  sentPk:vector(packetBytes)  ETV
attr interpolationmode  none
attr source  sentPk
attr title  "packets sent, vector(packetBytes)"
vector 330  Blackhole_Network.node[2].wlan[0].mac  "throughput AC0"  ETV
vector 332  Blackhole_Network.node[2].wlan[0].radio  snirVector  ETV
vector 338  Blackhole_Network.node[3].wlan[0].radio  snirVector  ETV
vector 105  Blackhole_Network.node[2].udpApp[0]  sentPk:vector(packetBytes)  ETV
attr interpolationmode  none
attr source  sentPk
attr title  "packets sent, vector(packetBytes)"
vector 110  Blackhole_Network.node[2].udp  sentPk:vector(packetBytes)  ETV
attr interpolationmode  none
attr source  sentPk
attr title  "packets sent, vector(packetBytes)"
vector 318  Blackhole_Network.node[0].wlan[0].mac  "throughput AC0"  ETV
vector 320  Blackhole_Network.node[0].wlan[0].radio  snirVector  ETV
vector 356  Blackhole_Network.node[6].wlan[0].radio  snirVector  ETV
vector 319  Blackhole_Network.node[0].wlan[0].mac  "Mac delay AC0"  ETV
vector 301  Blackhole_Network.blackhole[0].wlan[0].mac  "Mac delay AC0"  ETV
vector 361  Blackhole_Network.node[7].wlan[0].mac  "Mac delay AC0"  ETV
vector 236  Blackhole_Network.node[7].networkLayer.ip  rcvdPkt:vector  ETV
attr interpolationmode  none
attr title  "Number of packet received, vector"
vector 337  Blackhole_Network.node[3].wlan[0].mac  "Mac delay AC0"  ETV
vector 1  Blackhole_Network.blackhole[0].networkLayer.ip  rcvdPkt:vector  ETV
attr interpolationmode  none
attr title  "Number of packet received, vector"
vector 3  Blackhole_Network.blackhole[0].networkLayer.ip  blacked:vector  ETV
attr interpolationmode  none
attr title  "Number of blackhole drops, vector"
vector 299  Blackhole_Network.blackhole[0].wlan[0].mac  "jitter AC0"  ETV
vector 317  Blackhole_Network.node[0].wlan[0].mac  "jitter AC0"  ETV
vector 359  Blackhole_Network.node[7].wlan[0].mac  "jitter AC0"  ETV
vector 335  Blackhole_Network.node[3].wlan[0].mac  "jitter AC0"  ETV
vector 225  Blackhole_Network.node[7].udpApp[0]  sentPk:vector(packetBytes)  ETV
attr interpolationmode  none
attr source  sentPk
attr title  "packets sent, vector(packetBytes)"
vector 230  Blackhole_Network.node[7].udp  sentPk:vector(packetBytes)  ETV
attr interpolationmode  none
attr source  sentPk
attr title  "packets sent, vector(packetBytes)"
vector 374  Blackhole_Network.node[9].wlan[0].radio  snirVector  ETV
vector 116  Blackhole_Network.node[2].networkLayer.ip  rcvdPkt:vector  ETV
attr interpolationmode  none
attr title  "Number of packet received, vector"
vector 111  Blackhole_Network.node[2].udp  rcvdPk:vector(packetBytes)  ETV
attr interpolationmode  none
attr source  rcvdPk
attr title  "packets received, vector(packetBytes)"
vector 112  Blackhole_Network.node[2].udp  passedUpPk:vector(count)  ETV
attr interpolationmode  none
attr title  "packets passed up, vector(count)"
vector 106  Blackhole_Network.node[2].udpApp[0]  rcvdPk:vector(packetBytes)  ETV
attr interpolationmode  none
attr source  rcvdPk
attr title  "packets received, vector(packetBytes)"
vector 109  Blackhole_Network.node[2].udpApp[0]  endToEndDelay:vector  ETV
attr interpolationmode  none
attr source  messageAge(rcvdPk)
attr title  "delay, vector"
attr unit  s
vector 326  Blackhole_Network.node[1].wlan[0].radio  snirVector  ETV
vector 313  Blackhole_Network.destination[0].wlan[0].mac  "Mac delay AC0"  ETV
vector 307  Blackhole_Network.originator[0].wlan[0].mac  "Mac delay AC0"  ETV
vector 305  Blackhole_Network.originator[0].wlan[0].mac  "jitter AC0"  ETV
vector 311  Blackhole_Network.destination[0].wlan[0].mac  "jitter AC0"  ETV
vector 153  Blackhole_Network.node[4].udpApp[0]  sentPk:vector(packetBytes)  ETV
attr interpolationmode  none
attr source  sentPk
attr title  "packets sent, vector(packetBytes)"
vector 158  Blackhole_Network.node[4].udp  sentPk:vector(packetBytes)  ETV
attr interpolationmode  none
attr source  sentPk
attr title  "packets sent, vector(packetBytes)"
vector 35  Blackhole_Network.originator[0].wlan[0].radio  lossRate:vector  ETV
attr interpolationmode  backward-sample-hold
attr title  "packet loss rate, vector"
vector 177  Blackhole_Network.node[5].udpApp[0]  sentPk:vector(packetBytes)  ETV
attr interpolationmode  none
attr source  sentPk
attr title  "packets sent, vector(packetBytes)"
vector 182  Blackhole_Network.node[5].udp  sentPk:vector(packetBytes)  ETV
attr interpolationmode  none
attr source  sentPk
attr title  "packets sent, vector(packetBytes)"
vector 57  Blackhole_Network.node[0].udpApp[0]  sentPk:vector(packetBytes)  ETV
attr interpolationmode  none
attr source  sentPk
attr title  "packets sent, vector(packetBytes)"
vector 62  Blackhole_Network.node[0].udp  sentPk:vector(packetBytes)  ETV
attr interpolationmode  none
attr source  sentPk
attr title  "packets sent, vector(packetBytes)"
vector 248  Blackhole_Network.node[7].wlan[0].radio  lossRate:vector  ETV
attr interpolationmode  backward-sample-hold
attr title  "packet loss rate, vector"
vector 249  Blackhole_Network.node[8].udpApp[0]  sentPk:vector(packetBytes)  ETV
attr interpolationmode  none
attr source  sentPk
attr title  "packets sent, vector(packetBytes)"
vector 254  Blackhole_Network.node[8].udp  sentPk:vector(packetBytes)  ETV
attr interpolationmode  none
attr source  sentPk
attr title  "packets sent, vector(packetBytes)"
vector 164  Blackhole_Network.node[4].networkLayer.ip  rcvdPkt:vector  ETV
attr interpolationmode  none
attr title  "Number of packet received, vector"
vector 159  Blackhole_Network.node[4].udp  rcvdPk:vector(packetBytes)  ETV
attr interpolationmode  none
attr source  rcvdPk
attr title  "packets received, vector(packetBytes)"
vector 160  Blackhole_Network.node[4].udp  passedUpPk:vector(count)  ETV
attr interpolationmode  none
attr title  "packets passed up, vector(count)"
vector 154  Blackhole_Network.node[4].udpApp[0]  rcvdPk:vector(packetBytes)  ETV
attr interpolationmode  none
attr source  rcvdPk
attr title  "packets received, vector(packetBytes)"
vector 157  Blackhole_Network.node[4].udpApp[0]  endToEndDelay:vector  ETV
attr interpolationmode  none
attr source  messageAge(rcvdPk)
attr title  "delay, vector"
attr unit  s
vector 367  Blackhole_Network.node[8].wlan[0].mac  "Mac delay AC0"  ETV
vector 13  Blackhole_Network.blackhole[0].wlan[0].radio  lossRate:vector  ETV
attr interpolationmode  backward-sample-hold
attr title  "packet loss rate, vector"
vector 365  Blackhole_Network.node[8].wlan[0].mac  "jitter AC0"  ETV
1	22732 149 1447 5265 1.083368821397 1.544745910078 6 1 6 21 91
3	22881 149 1447 5265 1.083368821397 1.544745910078 6 1 6 21 91
8	23030 9 0 0 0 0 1 0 0 0 0
10	23039 17 0 0 0 0 1 54000000 54000000 54000000 2.916e+015
11	23056 10 0 0 0 0 1 0 0 0 0
12	23066 8148 0 5628 0 1.586810573204 317 0 2 210 314
13	31214 28 5187 5187 1.54456628882 1.54456628882 1 0.06 0.06 0.06 0.0036
15	31242 55 368 5019 1.044883177382 1.544011472384 2 512 512 1024 524288
17	31297 55 369 5020 1.044883177382 1.544011472384 2 520 520 1040 540800
30	31352 10 0 0 0 0 1 0 0 0 0
32	31362 17 0 0 0 0 1 54000000 54000000 54000000 2.916e+015
33	31379 10 0 0 0 0 1 0 0 0 0
34	31389 7426 0 5658 0 1.586935317296 289 0 2 164 204
35	38815 29 4367 4367 1.337928801674 1.337928801674 1 0.04 0.04 0.04 0.0016
51	38844 10 0 0 0 0 1 0 0 0 0
53	38854 17 0 0 0 0 1 54000000 54000000 54000000 2.916e+015
54	38871 10 0 0 0 0 1 0 0 0 0
55	38881 4020 0 5286 0 1.544780354015 157 0 2 88 108
57	42901 28 4553 4553 1.391773001756 1.391773001756 1 512 512 512 262144
62	42929 28 4554 4554 1.391773001756 1.391773001756 1 520 520 520 270400
75	42957 10 0 0 0 0 1 0 0 0 0
77	42967 17 0 0 0 0 1 54000000 54000000 54000000 2.916e+015
78	42984 10 0 0 0 0 1 0 0 0 0
79	42994 3812 0 5288 0 1.544780651372 149 0 2 86 110
81	46806 83 294 4999 0.977665111655 1.476312298606 3 512 512 1536 786432
86	46889 83 295 5000 0.977665111655 1.476312298606 3 520 520 1560 811200
99	46972 10 0 0 0 0 1 0 0 0 0
101	46982 18 0 0 0 0 1 54000000 54000000 54000000 2.916e+015
102	47000 11 0 0 0 0 1 0 0 0 0
103	47011 869 0 5542 0 1.579052613657 33 0 2 22 34
105	47880 86 428 5304 1.068044563755 1.568122992779 3 512 512 1536 786432
106	47966 58 2422 4960 1.222261157397 1.470410794936 2 512 512 1024 524288
109	48024 79 2422 4960 1.222261157397 1.470410794936 2 0.000251498593 0.00162850581 0.001880004403 2.7152827154847e-006
110	48103 86 429 5305 1.068044563755 1.568122992779 3 520 520 1560 811200
111	48189 58 2421 4959 1.222261157397 1.470410794936 2 520 520 1040 540800
112	48247 54 2421 4959 1.222261157397 1.470410794936 2 1 2 3 5
116	48301 54 2418 4956 1.222261157397 1.470410794936 2 1 2 3 5
123	48355 11 0 0 0 0 1 0 0 0 0
125	48366 18 0 0 0 0 1 54000000 54000000 54000000 2.916e+015
126	48384 11 0 0 0 0 1 0 0 0 0
127	48395 6227 0 5623 0 1.58681026129 233 0 2 134 170
129	54622 114 119 5569 0.83739616163 1.586693041722 4 512 512 2048 1048576
134	54736 114 120 5570 0.83739616163 1.586693041722 4 520 520 2080 1081600
147	54850 11 0 0 0 0 1 0 0 0 0
149	54861 18 0 0 0 0 1 54000000 54000000 54000000 2.916e+015
150	54879 11 0 0 0 0 1 0 0 0 0
151	54890 6775 0 5653 0 1.586934483428 253 0 2 154 210
153	61665 57 4148 5563 1.33261984284 1.582910983322 2 512 512 1024 524288
154	61722 29 4812 4812 1.444920282391 1.444920282391 1 512 512 512 262144
157	61751 40 4812 4812 1.444920282391 1.444920282391 1 0.000251363776 0.000251363776 0.000251363776 6.3183747884978e-008
158	61791 57 4149 5564 1.33261984284 1.582910983322 2 520 520 1040 540800
159	61848 29 4811 4811 1.444920282391 1.444920282391 1 520 520 520 270400
160	61877 27 4811 4811 1.444920282391 1.444920282391 1 1 1 1 1
164	61904 27 4808 4808 1.444920282391 1.444920282391 1 1 1 1 1
171	61931 11 0 0 0 0 1 0 0 0 0
173	61942 18 0 0 0 0 1 54000000 54000000 54000000 2.916e+015
174	61960 11 0 0 0 0 1 0 0 0 0
175	61971 1947 0 5489 0 1.578337138144 73 0 2 48 72
177	63918 29 4493 4493 1.370087251067 1.370087251067 1 512 512 512 262144
182	63947 29 4494 4494 1.370087251067 1.370087251067 1 520 520 520 270400
195	63976 11 0 0 0 0 1 0 0 0 0
197	63987 18 0 0 0 0 1 54000000 54000000 54000000 2.916e+015
198	64005 11 0 0 0 0 1 0 0 0 0
199	64016 1943 0 5543 0 1.579053366894 73 0 2 44 60
201	65959 86 186 4845 0.961479362798 1.461596447513 3 512 512 1536 786432
206	66045 86 187 4846 0.961479362798 1.461596447513 3 520 520 1560 811200
219	66131 11 0 0 0 0 1 0 0 0 0
221	66142 18 0 0 0 0 1 54000000 54000000 54000000 2.916e+015
222	66160 11 0 0 0 0 1 0 0 0 0
223	66171 3541 0 5290 0 1.544780678294 133 0 2 70 78
225	69712 58 2169 4851 1.220632651587 1.470159296343 2 512 512 1024 524288
230	69770 58 2170 4852 1.220632651587 1.470159296343 2 520 520 1040 540800
236	69828 135 1305 5122 1.083047376424 1.544262478191 5 1 5 15 55
243	69963 11 0 0 0 0 1 0 0 0 0
245	69974 18 0 0 0 0 1 54000000 54000000 54000000 2.916e+015
246	69992 11 0 0 0 0 1 0 0 0 0
247	70003 10521 0 5654 0 1.586935204281 393 0 2 274 430
248	80524 30 4613 4613 1.391890556969 1.391890556969 1 0.04 0.04 0.04 0.0016
249	80554 29 4705 4705 1.444668918615 1.444668918615 1 512 512 512 262144
254	80583 29 4706 4706 1.444668918615 1.444668918615 1 520 520 520 270400
267	80612 11 0 0 0 0 1 0 0 0 0
269	80623 18 0 0 0 0 1 54000000 54000000 54000000 2.916e+015
270	80641 11 0 0 0 0 1 0 0 0 0
271	80652 1947 0 5493 0 1.578337207543 73 0 2 46 66
273	82599 84 240 4993 0.97360042273 1.473909413934 3 512 512 1536 786432
278	82683 84 241 4994 0.97360042273 1.473909413934 3 520 520 1560 811200
291	82767 11 0 0 0 0 1 0 0 0 0
293	82778 18 0 0 0 0 1 54000000 54000000 54000000 2.916e+015
294	82796 11 0 0 0 0 1 0 0 0 0
295	82807 1515 0 5435 0 1.576630928278 57 0 2 34 46
297	84322 15010 0 5630 0 1.586810573204 562 0 7 776 4120
298	99332 8476 0 5628 0 1.586810573204 318 0 2 210 314
299	107808 67 1810 3931 1.203519229093 1.313332089817 2 0 0.000393252956 0.000393252956 1.5464788740274e-007
300	107875 201 201 5610 0.963783912574 1.586776573204 6 0 25497.924209783 42152.725572575 813806597.69772
301	108076 120 1058 3425 1.082106881975 1.296524860363 3 0.000439763768 0.000833016724 0.001727040456 1.0936611490025e-006
302	108196 40 218 218 0.963845912574 0.963845912574 1 25.871808304268 25.871808304268 25.871808304268 669.35046493277
303	108236 14238 0 5658 0 1.586935317296 534 0 7 436 2064
304	122474 7726 0 5658 0 1.586935317296 290 0 2 164 204
305	130200 53 3880 5580 1.312329196642 1.58673187559 2 0 0 0 0
306	130253 215 134 5580 0.842327288035 1.58673187559 6 0 53662.149810084 107463.67316347 4581154323.2317
307	130468 78 3698 5145 1.29720938791 1.54429681346 2 0.000275341076 0.000389337592 0.000664678668 2.273964686772e-007
308	130546 40 151 151 0.842389288035 0.842389288035 1 25.043942502603 25.043942502603 25.043942502603 627.19905607371
309	130586 7720 0 5287 0 1.544780354015 290 0 7 192 984
310	138306 4188 0 5286 0 1.544780354015 158 0 2 88 108
311	142494 27 4089 4089 1.314427803139 1.314427803139 1 0 0 0 0
312	142521 146 200 5199 0.96378376618 1.544576732757 5 0 13272.174566981 13272.174566981 176150617.73643
313	142667 40 3135 3135 1.295706284581 1.295706284581 1 0.000203763768 0.000203763768 0.000203763768 4.1519673149558e-008
314	142707 39 214 214 0.96384576618 0.96384576618 1 27.747613935243 27.747613935243 27.747613935243 769.93007909928
315	142746 7550 0 5289 0 1.544780651372 284 0 7 338 1682
316	150296 3972 0 5288 0 1.544780651372 150 0 2 86 110
317	154268 54 1859 5200 1.204723450556 1.544577030114 2 0 0 0 0
318	154322 149 653 5200 1.080848386276 1.544577030114 4 0 20230.378997057 32897.45525002 490039006.90964
319	154471 78 904 4677 1.081677367256 1.392059973144 2 0.000276971388 0.00074698098 0.001023952368 6.3469373425241e-007
320	154549 40 670 670 1.080910386276 1.080910386276 1 25.969875651288 25.969875651288 25.969875651288 674.43444134337
321	154589 1896 0 5562 0 1.579260613657 72 0 5 108 408
322	156485 880 0 5542 0 1.579052613657 34 0 2 22 34
324	157365 135 305 5477 0.981128417586 1.578275314272 4 0 4855.6222550232 8003.3277492558 33485117.361899
326	157500 41 2531 2531 1.223549497555 1.223549497555 1 25.862990911537 25.862990911537 25.862990911537 668.89429889023
327	157541 11744 0 5625 0 1.58681026129 440 0 7 214 1034