version 2
run General-0-20210218-21:18:40-12332
attr configname General
attr datetime 20210218-21:18:40
attr experiment General
attr inifile Blackhole.ini
attr iterationvars $mobility=5
attr iterationvars2 "$mobility=5, $repetition=0"
attr measurement $mobility=5
attr mobility 5
attr network Blackhole_Network
attr processid 12332
attr repetition 0
attr replication #0
attr resultdir results
attr runnumber 0
attr seedset 0

vector 7  Blackhole_Network.blackhole[0].wlan[0].mgmt  dataQueueLen:vector  ETV
attr interpolationmode  sample-hold
attr title  "data queue length, vector"
vector 28  Blackhole_Network.originator[0].wlan[0].mgmt  dataQueueLen:vector  ETV
attr interpolationmode  sample-hold
attr title  "data queue length, vector"
vector 48  Blackhole_Network.destination[0].wlan[0].mgmt  dataQueueLen:vector  ETV
attr interpolationmode  sample-hold
attr title  "data queue length, vector"
vector 71  Blackhole_Network.node[0].wlan[0].mgmt  dataQueueLen:vector  ETV
attr interpolationmode  sample-hold
attr title  "data queue length, vector"
vector 94  Blackhole_Network.node[1].wlan[0].mgmt  dataQueueLen:vector  ETV
attr interpolationmode  sample-hold
attr title  "data queue length, vector"
vector 117  Blackhole_Network.node[2].wlan[0].mgmt  dataQueueLen:vector  ETV
attr interpolationmode  sample-hold
attr title  "data queue length, vector"
vector 140  Blackhole_Network.node[3].wlan[0].mgmt  dataQueueLen:vector  ETV
attr interpolationmode  sample-hold
attr title  "data queue length, vector"
vector 163  Blackhole_Network.node[4].wlan[0].mgmt  dataQueueLen:vector  ETV
attr interpolationmode  sample-hold
attr title  "data queue length, vector"
vector 186  Blackhole_Network.node[5].wlan[0].mgmt  dataQueueLen:vector  ETV
attr interpolationmode  sample-hold
attr title  "data queue length, vector"
vector 209  Blackhole_Network.node[6].wlan[0].mgmt  dataQueueLen:vector  ETV
attr interpolationmode  sample-hold
attr title  "data queue length, vector"
vector 232  Blackhole_Network.node[7].wlan[0].mgmt  dataQueueLen:vector  ETV
attr interpolationmode  sample-hold
attr title  "data queue length, vector"
vector 255  Blackhole_Network.node[8].wlan[0].mgmt  dataQueueLen:vector  ETV
attr interpolationmode  sample-hold
attr title  "data queue length, vector"
vector 278  Blackhole_Network.node[9].wlan[0].mgmt  dataQueueLen:vector  ETV
attr interpolationmode  sample-hold
attr title  "data queue length, vector"
vector 285  Blackhole_Network.blackhole[0].wlan[0].mac  RadioState  ETV
attr enum  "IDLE=0, RECV=1, SLEEP=3, TRANSMIT=2"
attr enumname  RadioState
vector 284  Blackhole_Network.blackhole[0].wlan[0].mac  State  ETV
attr enum  "BACKOFF=3, DEFER=1, IDLE=0, RECEIVE=8, WAITACK=4, WAITAIFS=2, WAITCTS=6, WAITMULTICAST=5, WAITSIFS=7"
attr enumname  Ieee80211Mac
vector 291  Blackhole_Network.originator[0].wlan[0].mac  RadioState  ETV
attr enum  "IDLE=0, RECV=1, SLEEP=3, TRANSMIT=2"
attr enumname  RadioState
vector 290  Blackhole_Network.originator[0].wlan[0].mac  State  ETV
attr enum  "BACKOFF=3, DEFER=1, IDLE=0, RECEIVE=8, WAITACK=4, WAITAIFS=2, WAITCTS=6, WAITMULTICAST=5, WAITSIFS=7"
attr enumname  Ieee80211Mac
vector 297  Blackhole_Network.destination[0].wlan[0].mac  RadioState  ETV
attr enum  "IDLE=0, RECV=1, SLEEP=3, TRANSMIT=2"
attr enumname  RadioState
vector 296  Blackhole_Network.destination[0].wlan[0].mac  State  ETV
attr enum  "BACKOFF=3, DEFER=1, IDLE=0, RECEIVE=8, WAITACK=4, WAITAIFS=2, WAITCTS=6, WAITMULTICAST=5, WAITSIFS=7"
attr enumname  Ieee80211Mac
vector 303  Blackhole_Network.node[0].wlan[0].mac  RadioState  ETV
attr enum  "IDLE=0, RECV=1, SLEEP=3, TRANSMIT=2"
attr enumname  RadioState
vector 302  Blackhole_Network.node[0].wlan[0].mac  State  ETV
attr enum  "BACKOFF=3, DEFER=1, IDLE=0, RECEIVE=8, WAITACK=4, WAITAIFS=2, WAITCTS=6, WAITMULTICAST=5, WAITSIFS=7"
attr enumname  Ieee80211Mac
vector 309  Blackhole_Network.node[1].wlan[0].mac  RadioState  ETV
attr enum  "IDLE=0, RECV=1, SLEEP=3, TRANSMIT=2"
attr enumname  RadioState
vector 308  Blackhole_Network.node[1].wlan[0].mac  State  ETV
attr enum  "BACKOFF=3, DEFER=1, IDLE=0, RECEIVE=8, WAITACK=4, WAITAIFS=2, WAITCTS=6, WAITMULTICAST=5, WAITSIFS=7"
attr enumname  Ieee80211Mac
vector 315  Blackhole_Network.node[2].wlan[0].mac  RadioState  ETV
attr enum  "IDLE=0, RECV=1, SLEEP=3, TRANSMIT=2"
attr enumname  RadioState
vector 314  Blackhole_Network.node[2].wlan[0].mac  State  ETV
attr enum  "BACKOFF=3, DEFER=1, IDLE=0, RECEIVE=8, WAITACK=4, WAITAIFS=2, WAITCTS=6, WAITMULTICAST=5, WAITSIFS=7"
attr enumname  Ieee80211Mac
vector 321  Blackhole_Network.node[3].wlan[0].mac  RadioState  ETV
attr enum  "IDLE=0, RECV=1, SLEEP=3, TRANSMIT=2"
attr enumname  RadioState
vector 320  Blackhole_Network.node[3].wlan[0].mac  State  ETV
attr enum  "BACKOFF=3, DEFER=1, IDLE=0, RECEIVE=8, WAITACK=4, WAITAIFS=2, WAITCTS=6, WAITMULTICAST=5, WAITSIFS=7"
attr enumname  Ieee80211Mac
vector 327  Blackhole_Network.node[4].wlan[0].mac  RadioState  ETV
attr enum  "IDLE=0, RECV=1, SLEEP=3, TRANSMIT=2"
attr enumname  RadioState
vector 326  Blackhole_Network.node[4].wlan[0].mac  State  ETV
attr enum  "BACKOFF=3, DEFER=1, IDLE=0, RECEIVE=8, WAITACK=4, WAITAIFS=2, WAITCTS=6, WAITMULTICAST=5, WAITSIFS=7"
attr enumname  Ieee80211Mac
vector 333  Blackhole_Network.node[5].wlan[0].mac  RadioState  ETV
attr enum  "IDLE=0, RECV=1, SLEEP=3, TRANSMIT=2"
attr enumname  RadioState
vector 332  Blackhole_Network.node[5].wlan[0].mac  State  ETV
attr enum  "BACKOFF=3, DEFER=1, IDLE=0, RECEIVE=8, WAITACK=4, WAITAIFS=2, WAITCTS=6, WAITMULTICAST=5, WAITSIFS=7"
attr enumname  Ieee80211Mac
vector 339  Blackhole_Network.node[6].wlan[0].mac  RadioState  ETV
attr enum  "IDLE=0, RECV=1, SLEEP=3, TRANSMIT=2"
attr enumname  RadioState
vector 338  Blackhole_Network.node[6].wlan[0].mac  State  ETV
attr enum  "BACKOFF=3, DEFER=1, IDLE=0, RECEIVE=8, WAITACK=4, WAITAIFS=2, WAITCTS=6, WAITMULTICAST=5, WAITSIFS=7"
attr enumname  Ieee80211Mac
vector 345  Blackhole_Network.node[7].wlan[0].mac  RadioState  ETV
attr enum  "IDLE=0, RECV=1, SLEEP=3, TRANSMIT=2"
attr enumname  RadioState
vector 344  Blackhole_Network.node[7].wlan[0].mac  State  ETV
attr enum  "BACKOFF=3, DEFER=1, IDLE=0, RECEIVE=8, WAITACK=4, WAITAIFS=2, WAITCTS=6, WAITMULTICAST=5, WAITSIFS=7"
attr enumname  Ieee80211Mac
vector 351  Blackhole_Network.node[8].wlan[0].mac  RadioState  ETV
attr enum  "IDLE=0, RECV=1, SLEEP=3, TRANSMIT=2"
attr enumname  RadioState
vector 350  Blackhole_Network.node[8].wlan[0].mac  State  ETV
attr enum  "BACKOFF=3, DEFER=1, IDLE=0, RECEIVE=8, WAITACK=4, WAITAIFS=2, WAITCTS=6, WAITMULTICAST=5, WAITSIFS=7"
attr enumname  Ieee80211Mac
vector 357  Blackhole_Network.node[9].wlan[0].mac  RadioState  ETV
attr enum  "IDLE=0, RECV=1, SLEEP=3, TRANSMIT=2"
attr enumname  RadioState
vector 356  Blackhole_Network.node[9].wlan[0].mac  State  ETV
attr enum  "BACKOFF=3, DEFER=1, IDLE=0, RECEIVE=8, WAITACK=4, WAITAIFS=2, WAITCTS=6, WAITMULTICAST=5, WAITSIFS=7"
attr enumname  Ieee80211Mac
vector 9  Blackhole_Network.blackhole[0].wlan[0].radio  bitrate:vector  ETV
attr interpolationmode  sample-hold
attr title  "tx bitrate, vector"
attr unit  bps
vector 11  Blackhole_Network.blackhole[0].wlan[0].radio  radioState:vector  ETV
attr interpolationmode  sample-hold
attr title  "radio state (enum), vector"
vector 10  Blackhole_Network.blackhole[0].wlan[0].radio  channelNo:vector  ETV
attr interpolationmode  sample-hold
attr title  "channel no, vector"
vector 30  Blackhole_Network.originator[0].wlan[0].radio  bitrate:vector  ETV
attr interpolationmode  sample-hold
attr title  "tx bitrate, vector"
attr unit  bps
vector 32  Blackhole_Network.originator[0].wlan[0].radio  radioState:vector  ETV
attr interpolationmode  sample-hold
attr title  "radio state (enum), vector"
vector 31  Blackhole_Network.originator[0].wlan[0].radio  channelNo:vector  ETV
attr interpolationmode  sample-hold
attr title  "channel no, vector"
vector 50  Blackhole_Network.destination[0].wlan[0].radio  bitrate:vector  ETV
attr interpolationmode  sample-hold
attr title  "tx bitrate, vector"
attr unit  bps
vector 52  Blackhole_Network.destination[0].wlan[0].radio  radioState:vector  ETV
attr interpolationmode  sample-hold
attr title  "radio state (enum), vector"
vector 51  Blackhole_Network.destination[0].wlan[0].radio  channelNo:vector  ETV
attr interpolationmode  sample-hold
attr title  "channel no, vector"
vector 73  Blackhole_Network.node[0].wlan[0].radio  bitrate:vector  ETV
attr interpolationmode  sample-hold
attr title  "tx bitrate, vector"
attr unit  bps
vector 75  Blackhole_Network.node[0].wlan[0].radio  radioState:vector  ETV
attr interpolationmode  sample-hold
attr title  "radio state (enum), vector"
vector 74  Blackhole_Network.node[0].wlan[0].radio  channelNo:vector  ETV
attr interpolationmode  sample-hold
attr title  "channel no, vector"
vector 96  Blackhole_Network.node[1].wlan[0].radio  bitrate:vector  ETV
attr interpolationmode  sample-hold
attr title  "tx bitrate, vector"
attr unit  bps
vector 98  Blackhole_Network.node[1].wlan[0].radio  radioState:vector  ETV
attr interpolationmode  sample-hold
attr title  "radio state (enum), vector"
vector 97  Blackhole_Network.node[1].wlan[0].radio  channelNo:vector  ETV
attr interpolationmode  sample-hold
attr title  "channel no, vector"
vector 119  Blackhole_Network.node[2].wlan[0].radio  bitrate:vector  ETV
attr interpolationmode  sample-hold
attr title  "tx bitrate, vector"
attr unit  bps
vector 121  Blackhole_Network.node[2].wlan[0].radio  radioState:vector  ETV
attr interpolationmode  sample-hold
attr title  "radio state (enum), vector"
vector 120  Blackhole_Network.node[2].wlan[0].radio  channelNo:vector  ETV
attr interpolationmode  sample-hold
attr title  "channel no, vector"
vector 142  Blackhole_Network.node[3].wlan[0].radio  bitrate:vector  ETV
attr interpolationmode  sample-hold
attr title  "tx bitrate, vector"
attr unit  bps
vector 144  Blackhole_Network.node[3].wlan[0].radio  radioState:vector  ETV
attr interpolationmode  sample-hold
attr title  "radio state (enum), vector"
vector 143  Blackhole_Network.node[3].wlan[0].radio  channelNo:vector  ETV
attr interpolationmode  sample-hold
attr title  "channel no, vector"
vector 165  Blackhole_Network.node[4].wlan[0].radio  bitrate:vector  ETV
attr interpolationmode  sample-hold
attr title  "tx bitrate, vector"
attr unit  bps
vector 167  Blackhole_Network.node[4].wlan[0].radio  radioState:vector  ETV
attr interpolationmode  sample-hold
attr title  "radio state (enum), vector"
vector 166  Blackhole_Network.node[4].wlan[0].radio  channelNo:vector  ETV
attr interpolationmode  sample-hold
attr title  "channel no, vector"
vector 188  Blackhole_Network.node[5].wlan[0].radio  bitrate:vector  ETV
attr interpolationmode  sample-hold
attr title  "tx bitrate, vector"
attr unit  bps
vector 190  Blackhole_Network.node[5].wlan[0].radio  radioState:vector  ETV
attr interpolationmode  sample-hold
attr title  "radio state (enum), vector"
vector 189  Blackhole_Network.node[5].wlan[0].radio  channelNo:vector  ETV
attr interpolationmode  sample-hold
attr title  "channel no, vector"
vector 211  Blackhole_Network.node[6].wlan[0].radio  bitrate:vector  ETV
attr interpolationmode  sample-hold
attr title  "tx bitrate, vector"
attr unit  bps
vector 213  Blackhole_Network.node[6].wlan[0].radio  radioState:vector  ETV
attr interpolationmode  sample-hold
attr title  "radio state (enum), vector"
vector 212  Blackhole_Network.node[6].wlan[0].radio  channelNo:vector  ETV
attr interpolationmode  sample-hold
attr title  "channel no, vector"
vector 234  Blackhole_Network.node[7].wlan[0].radio  bitrate:vector  ETV
attr interpolationmode  sample-hold
attr title  "tx bitrate, vector"
attr unit  bps
vector 236  Blackhole_Network.node[7].wlan[0].radio  radioState:vector  ETV
attr interpolationmode  sample-hold
attr title  "radio state (enum), vector"
vector 235  Blackhole_Network.node[7].wlan[0].radio  channelNo:vector  ETV
attr interpolationmode  sample-hold
attr title  "channel no, vector"
vector 257  Blackhole_Network.node[8].wlan[0].radio  bitrate:vector  ETV
attr interpolationmode  sample-hold
attr title  "tx bitrate, vector"
attr unit  bps
vector 259  Blackhole_Network.node[8].wlan[0].radio  radioState:vector  ETV
attr interpolationmode  sample-hold
attr title  "radio state (enum), vector"
vector 258  Blackhole_Network.node[8].wlan[0].radio  channelNo:vector  ETV
attr interpolationmode  sample-hold
attr title  "channel no, vector"
vector 280  Blackhole_Network.node[9].wlan[0].radio  bitrate:vector  ETV
attr interpolationmode  sample-hold
attr title  "tx bitrate, vector"
attr unit  bps
vector 282  Blackhole_Network.node[9].wlan[0].radio  radioState:vector  ETV
attr interpolationmode  sample-hold
attr title  "radio state (enum), vector"
vector 281  Blackhole_Network.node[9].wlan[0].radio  channelNo:vector  ETV
attr interpolationmode  sample-hold
attr title  "channel no, vector"
vector 123  Blackhole_Network.node[3].udpApp[0]  sentPk:vector(packetBytes)  ETV
attr interpolationmode  none
attr source  sentPk
attr title  "packets sent, vector(packetBytes)"
vector 128  Blackhole_Network.node[3].udp  sentPk:vector(packetBytes)  ETV
attr interpolationmode  none
attr source  sentPk
attr title  "packets sent, vector(packetBytes)"
vector 323  Blackhole_Network.node[3].wlan[0].mac  "throughput AC0"  ETV
vector 347  Blackhole_Network.node[7].wlan[0].mac  "throughput AC0"  ETV
vector 293  Blackhole_Network.originator[0].wlan[0].mac  "throughput AC0"  ETV
vector 349  Blackhole_Network.node[7].wlan[0].radio  snirVector  ETV
vector 295  Blackhole_Network.originator[0].wlan[0].radio  snirVector  ETV
vector 192  Blackhole_Network.node[6].udpApp[0]  sentPk:vector(packetBytes)  ETV
attr interpolationmode  none
attr source  sentPk
attr title  "packets sent, vector(packetBytes)"
vector 197  Blackhole_Network.node[6].udp  sentPk:vector(packetBytes)  ETV
attr interpolationmode  none
attr source  sentPk
attr title  "packets sent, vector(packetBytes)"
vector 341  Blackhole_Network.node[6].wlan[0].mac  "throughput AC0"  ETV
vector 299  Blackhole_Network.destination[0].wlan[0].mac  "throughput AC0"  ETV
vector 287  Blackhole_Network.blackhole[0].wlan[0].mac  "throughput AC0"  ETV
vector 301  Blackhole_Network.destination[0].wlan[0].radio  snirVector  ETV
vector 289  Blackhole_Network.blackhole[0].wlan[0].radio  snirVector  ETV
vector 261  Blackhole_Network.node[9].udpApp[0]  sentPk:vector(packetBytes)  ETV
attr interpolationmode  none
attr source  sentPk
attr title  "packets sent, vector(packetBytes)"
vector 266  Blackhole_Network.node[9].udp  sentPk:vector(packetBytes)  ETV
attr interpolationmode  none
attr source  sentPk
attr title  "packets sent, vector(packetBytes)"
vector 359  Blackhole_Network.node[9].wlan[0].mac  "throughput AC0"  ETV
vector 353  Blackhole_Network.node[8].wlan[0].mac  "throughput AC0"  ETV
vector 329  Blackhole_Network.node[4].wlan[0].mac  "throughput AC0"  ETV
vector 355  Blackhole_Network.node[8].wlan[0].radio  snirVector  ETV
vector 331  Blackhole_Network.node[4].wlan[0].radio  snirVector  ETV
vector 77  Blackhole_Network.node[1].udpApp[0]  sentPk:vector(packetBytes)  ETV
attr interpolationmode  none
attr source  sentPk
attr title  "packets sent, vector(packetBytes)"
vector 82  Blackhole_Network.node[1].udp  sentPk:vector(packetBytes)  ETV
attr interpolationmode  none
attr source  sentPk
attr title  "packets sent, vector(packetBytes)"
vector 311  Blackhole_Network.node[1].wlan[0].mac  "throughput AC0"  ETV
vector 335  Blackhole_Network.node[5].wlan[0].mac  "throughput AC0"  ETV
vector 337  Blackhole_Network.node[5].wlan[0].radio  snirVector  ETV
vector 14  Blackhole_Network.originator[0].udpApp[0]  sentPk:vector(packetBytes)  ETV
attr interpolationmode  none
attr source  sentPk
attr title  "packets sent, vector(packetBytes)"
vector 16  Blackhole_Network.originator[0].udp  sentPk:vector(packetBytes)  ETV
attr interpolationmode  none
attr source  sentPk
attr title  "packets sent, vector(packetBytes)"
vector 317  Blackhole_Network.node[2].wlan[0].mac  "throughput AC0"  ETV
vector 319  Blackhole_Network.node[2].wlan[0].radio  snirVector  ETV
vector 325  Blackhole_Network.node[3].wlan[0].radio  snirVector  ETV
vector 100  Blackhole_Network.node[2].udpApp[0]  sentPk:vector(packetBytes)  ETV
attr interpolationmode  none
attr source  sentPk
attr title  "packets sent, vector(packetBytes)"
vector 105  Blackhole_Network.node[2].udp  sentPk:vector(packetBytes)  ETV
attr interpolationmode  none
attr source  sentPk
attr title  "packets sent, vector(packetBytes)"
vector 305  Blackhole_Network.node[0].wlan[0].mac  "throughput AC0"  ETV
vector 307  Blackhole_Network.node[0].wlan[0].radio  snirVector  ETV
vector 343  Blackhole_Network.node[6].wlan[0].radio  snirVector  ETV
vector 306  Blackhole_Network.node[0].wlan[0].mac  "Mac delay AC0"  ETV
vector 288  Blackhole_Network.blackhole[0].wlan[0].mac  "Mac delay AC0"  ETV
vector 348  Blackhole_Network.node[7].wlan[0].mac  "Mac delay AC0"  ETV
vector 226  Blackhole_Network.node[7].networkLayer.ip  rcvdPkt:vector  ETV
attr interpolationmode  none
attr title  "Number of packet received, vector"
vector 324  Blackhole_Network.node[3].wlan[0].mac  "Mac delay AC0"  ETV
vector 1  Blackhole_Network.blackhole[0].networkLayer.ip  rcvdPkt:vector  ETV
attr interpolationmode  none
attr title  "Number of packet received, vector"
vector 65  Blackhole_Network.node[0].networkLayer.ip  rcvdPkt:vector  ETV
attr interpolationmode  none
attr title  "Number of packet received, vector"
vector 60  Blackhole_Network.node[0].udp  rcvdPk:vector(packetBytes)  ETV
attr interpolationmode  none
attr source  rcvdPk
attr title  "packets received, vector(packetBytes)"
vector 61  Blackhole_Network.node[0].udp  passedUpPk:vector(count)  ETV
attr interpolationmode  none
attr title  "packets passed up, vector(count)"
vector 55  Blackhole_Network.node[0].udpApp[0]  rcvdPk:vector(packetBytes)  ETV
attr interpolationmode  none
attr source  rcvdPk
attr title  "packets received, vector(packetBytes)"
vector 58  Blackhole_Network.node[0].udpApp[0]  endToEndDelay:vector  ETV
attr interpolationmode  none
attr source  messageAge(rcvdPk)
attr title  "delay, vector"
attr unit  s
vector 286  Blackhole_Network.blackhole[0].wlan[0].mac  "jitter AC0"  ETV
vector 304  Blackhole_Network.node[0].wlan[0].mac  "jitter AC0"  ETV
vector 346  Blackhole_Network.node[7].wlan[0].mac  "jitter AC0"  ETV
vector 322  Blackhole_Network.node[3].wlan[0].mac  "jitter AC0"  ETV
vector 361  Blackhole_Network.node[9].wlan[0].radio  snirVector  ETV
vector 313  Blackhole_Network.node[1].wlan[0].radio  snirVector  ETV
vector 215  Blackhole_Network.node[7].udpApp[0]  sentPk:vector(packetBytes)  ETV
attr interpolationmode  none
attr source  sentPk
attr title  "packets sent, vector(packetBytes)"
vector 220  Blackhole_Network.node[7].udp  sentPk:vector(packetBytes)  ETV
attr interpolationmode  none
attr source  sentPk
attr title  "packets sent, vector(packetBytes)"
vector 111  Blackhole_Network.node[2].networkLayer.ip  rcvdPkt:vector  ETV
attr interpolationmode  none
attr title  "Number of packet received, vector"
vector 106  Blackhole_Network.node[2].udp  rcvdPk:vector(packetBytes)  ETV
attr interpolationmode  none
attr source  rcvdPk
attr title  "packets received, vector(packetBytes)"
vector 107  Blackhole_Network.node[2].udp  passedUpPk:vector(count)  ETV
attr interpolationmode  none
attr title  "packets passed up, vector(count)"
vector 101  Blackhole_Network.node[2].udpApp[0]  rcvdPk:vector(packetBytes)  ETV
attr interpolationmode  none
attr source  rcvdPk
attr title  "packets received, vector(packetBytes)"
vector 104  Blackhole_Network.node[2].udpApp[0]  endToEndDelay:vector  ETV
attr interpolationmode  none
attr source  messageAge(rcvdPk)
attr title  "delay, vector"
attr unit  s
vector 300  Blackhole_Network.destination[0].wlan[0].mac  "Mac delay AC0"  ETV
vector 294  Blackhole_Network.originator[0].wlan[0].mac  "Mac delay AC0"  ETV
vector 42  Blackhole_Network.destination[0].networkLayer.ip  rcvdPkt:vector  ETV
attr interpolationmode  none
attr title  "Number of packet received, vector"
vector 37  Blackhole_Network.destination[0].udp  rcvdPk:vector(packetBytes)  ETV
attr interpolationmode  none
attr source  rcvdPk
attr title  "packets received, vector(packetBytes)"
vector 38  Blackhole_Network.destination[0].udp  passedUpPk:vector(count)  ETV
attr interpolationmode  none
attr title  "packets passed up, vector(count)"
vector 34  Blackhole_Network.destination[0].udpApp[0]  rcvdPk:vector(packetBytes)  ETV
attr interpolationmode  none
attr source  rcvdPk
attr title  "packets received, vector(packetBytes)"
vector 35  Blackhole_Network.destination[0].udpApp[0]  endToEndDelay:vector  ETV
attr interpolationmode  none
attr source  messageAge(rcvdPk)
attr title  "end-to-end delay, vector"
attr unit  s
vector 292  Blackhole_Network.originator[0].wlan[0].mac  "jitter AC0"  ETV
vector 298  Blackhole_Network.destination[0].wlan[0].mac  "jitter AC0"  ETV
vector 146  Blackhole_Network.node[4].udpApp[0]  sentPk:vector(packetBytes)  ETV
attr interpolationmode  none
attr source  sentPk
attr title  "packets sent, vector(packetBytes)"
vector 151  Blackhole_Network.node[4].udp  sentPk:vector(packetBytes)  ETV
attr interpolationmode  none
attr source  sentPk
attr title  "packets sent, vector(packetBytes)"
vector 237  Blackhole_Network.node[7].wlan[0].radio  lossRate:vector  ETV
attr interpolationmode  backward-sample-hold
attr title  "packet loss rate, vector"
vector 169  Blackhole_Network.node[5].udpApp[0]  sentPk:vector(packetBytes)  ETV
attr interpolationmode  none
attr source  sentPk
attr title  "packets sent, vector(packetBytes)"
vector 174  Blackhole_Network.node[5].udp  sentPk:vector(packetBytes)  ETV
attr interpolationmode  none
attr source  sentPk
attr title  "packets sent, vector(packetBytes)"
vector 54  Blackhole_Network.node[0].udpApp[0]  sentPk:vector(packetBytes)  ETV
attr interpolationmode  none
attr source  sentPk
attr title  "packets sent, vector(packetBytes)"
vector 59  Blackhole_Network.node[0].udp  sentPk:vector(packetBytes)  ETV
attr interpolationmode  none
attr source  sentPk
attr title  "packets sent, vector(packetBytes)"
vector 12  Blackhole_Network.blackhole[0].wlan[0].radio  lossRate:vector  ETV
attr interpolationmode  backward-sample-hold
attr title  "packet loss rate, vector"
vector 33  Blackhole_Network.originator[0].wlan[0].radio  lossRate:vector  ETV
attr interpolationmode  backward-sample-hold
attr title  "packet loss rate, vector"
vector 238  Blackhole_Network.node[8].udpApp[0]  sentPk:vector(packetBytes)  ETV
attr interpolationmode  none
attr source  sentPk
attr title  "packets sent, vector(packetBytes)"
vector 243  Blackhole_Network.node[8].udp  sentPk:vector(packetBytes)  ETV
attr interpolationmode  none
attr source  sentPk
attr title  "packets sent, vector(packetBytes)"
vector 157  Blackhole_Network.node[4].networkLayer.ip  rcvdPkt:vector  ETV
attr interpolationmode  none
attr title  "Number of packet received, vector"
vector 152  Blackhole_Network.node[4].udp  rcvdPk:vector(packetBytes)  ETV
attr interpolationmode  none
attr source  rcvdPk
attr title  "packets received, vector(packetBytes)"
vector 153  Blackhole_Network.node[4].udp  passedUpPk:vector(count)  ETV
attr interpolationmode  none
attr title  "packets passed up, vector(count)"
vector 147  Blackhole_Network.node[4].udpApp[0]  rcvdPk:vector(packetBytes)  ETV
attr interpolationmode  none
attr source  rcvdPk
attr title  "packets received, vector(packetBytes)"
vector 150  Blackhole_Network.node[4].udpApp[0]  endToEndDelay:vector  ETV
attr interpolationmode  none
attr source  messageAge(rcvdPk)
attr title  "delay, vector"
attr unit  s
vector 354  Blackhole_Network.node[8].wlan[0].mac  "Mac delay AC0"  ETV
vector 122  Blackhole_Network.node[2].wlan[0].radio  lossRate:vector  ETV
attr interpolationmode  backward-sample-hold
attr title  "packet loss rate, vector"
vector 53  Blackhole_Network.destination[0].wlan[0].radio  lossRate:vector  ETV
attr interpolationmode  backward-sample-hold
attr title  "packet loss rate, vector"
vector 352  Blackhole_Network.node[8].wlan[0].mac  "jitter AC0"  ETV
vector 145  Blackhole_Network.node[3].wlan[0].radio  lossRate:vector  ETV
attr interpolationmode  backward-sample-hold
attr title  "packet loss rate, vector"
vector 76  Blackhole_Network.node[0].wlan[0].radio  lossRate:vector  ETV
attr interpolationmode  backward-sample-hold
attr title  "packet loss rate, vector"
vector 214  Blackhole_Network.node[6].wlan[0].radio  lossRate:vector  ETV
attr interpolationmode  backward-sample-hold
attr title  "packet loss rate, vector"
1	1447	1.083368821397	1
1	1873	1.08903065132	2
1	3877	1.293002330255	3
1	4652	1.338829351503	4
1	4993	1.392025230297	5
1	5888	1.544691910078	6
1	6577	1.588618400084	7
1	8047	1.64270424929	8
1	9359	1.838453574898	9
1	9649	1.892379199555	10
1	11041	2.045318971045	11
1	11478	2.089033810813	12
1	11778	2.143135938009	13
1	13647	2.338203229374	14
1	13934	2.392732462639	15
7	0	0	0
9	0	0	54000000
10	0	0	0
11	0	0	0
11	201	0.963783912574	1
11	201	0.963783912574	1
11	218	0.963845912574	0
11	218	0.963845912574	0
11	542	1.07941399021	1
11	542	1.07941399021	1
11	565	1.07947599021	0
11	565	1.07947599021	0
11	651	1.080847641031	2
11	651	1.080847641031	2
11	665	1.080909641031	0
11	665	1.080909641031	0
11	718	1.080959131521	1
11	718	1.080959131521	1
11	747	1.080993131521	0
11	747	1.080993131521	0
11	783	1.081501131521	1
11	783	1.081501131521	1
11	798	1.081535131521	0
11	798	1.081535131521	0
11	811	1.081545131521	2
11	811	1.081545131521	2
11	824	1.081579131521	0
11	824	1.081579131521	0
11	846	1.081590622011	1
11	846	1.081590622011	1
11	860	1.081632622011	0
11	860	1.081632622011	0
11	876	1.081642622011	2
11	876	1.081642622011	2
11	900	1.081676622011	0
11	900	1.081676622011	0
11	921	1.081929622011	2
11	921	1.081929622011	2
11	934	1.081963622011	0
11	934	1.081963622011	0
11	959	1.081975251993	1
11	959	1.081975251993	1
11	978	1.082009251993	0
11	978	1.082009251993	0
11	989	1.082019251993	2
11	989	1.082019251993	2
11	1002	1.082061251993	0
11	1002	1.082061251993	0
11	1030	1.082072881975	1
11	1030	1.082072881975	1
11	1057	1.082106881975	0
11	1057	1.082106881975	0
11	1075	1.082413881975	1
11	1075	1.082413881975	1
11	1093	1.082447881975	0
11	1093	1.082447881975	0
11	1138	1.082503318455	1
11	1138	1.082503318455	1
11	1156	1.082545318455	0
11	1156	1.082545318455	0
11	1245	1.082878754935	1
11	1245	1.082878754935	1
11	1262	1.082912754935	0
11	1262	1.082912754935	0
11	1314	1.083048191415	1
11	1314	1.083048191415	1
11	1333	1.083082191415	0
11	1333	1.083082191415	0
11	1350	1.083155191415	1
11	1350	1.083155191415	1
11	1369	1.083189191415	0
11	1369	1.083189191415	0
11	1380	1.083199191415	2
11	1380	1.083199191415	2
11	1393	1.083233191415	0
11	1393	1.083233191415	0
11	1418	1.083244821397	1
11	1418	1.083244821397	1
11	1434	1.083358821397	0
11	1434	1.083358821397	0
11	1448	1.083368821397	2
11	1448	1.083368821397	2
11	1471	1.083402821397	0
11	1471	1.083402821397	0
11	1492	1.083457821397	2
11	1492	1.083457821397	2
11	1505	1.083491821397	0
11	1505	1.083491821397	0
11	1528	1.083503311887	1
11	1528	1.083503311887	1
11	1542	1.083537311887	0
11	1542	1.083537311887	0
11	1555	1.083547311887	2
11	1555	1.083547311887	2
11	1569	1.083661311887	0
11	1569	1.083661311887	0
11	1595	1.083672802377	1
11	1595	1.083672802377	1
11	1612	1.083706802377	0
11	1612	1.083706802377	0
11	1671	1.088423584858	1
11	1671	1.088423584858	1
11	1688	1.088457584858	0
11	1688	1.088457584858	0
11	1740	1.088593021338	1
11	1740	1.088593021338	1
11	1759	1.088627021338	0
11	1759	1.088627021338	0
11	1776	1.088817021338	1
11	1776	1.088817021338	1
11	1795	1.088851021338	0
11	1795	1.088851021338	0
11	1806	1.088861021338	2
11	1806	1.088861021338	2
11	1819	1.088895021338	0
11	1819	1.088895021338	0
11	1844	1.08890665132	1
11	1844	1.08890665132	1
11	1860	1.08902065132	0
11	1860	1.08902065132	0
11	1874	1.08903065132	2
11	1874	1.08903065132	2
11	1897	1.08906465132	0
11	1897	1.08906465132	0
11	1918	1.08915565132	2
11	1918	1.08915565132	2
11	1931	1.08918965132	0
11	1931	1.08918965132	0
11	1955	1.08920114181	1
11	1955	1.08920114181	1
11	1969	1.08923514181	0
11	1969	1.08923514181	0
11	1982	1.08924514181	2
11	1982	1.08924514181	2
11	1995	1.08935914181	0
11	1995	1.08935914181	0
11	2021	1.0893706323	1
11	2021	1.0893706323	1
11	2038	1.0894046323	0
11	2038	1.0894046323	0
11	2090	1.202844735647	1
11	2090	1.202844735647	1
11	2107	1.202906735647	0
11	2107	1.202906735647	0
11	2136	1.20455482137	2
11	2136	1.20455482137	2
11	2150	1.20461682137	0
11	2150	1.20461682137	0
11	2199	1.204666724599	1
11	2199	1.204666724599	1
11	2222	1.204728724599	0
11	2222	1.204728724599	0
11	2256	1.207362949581	1
11	2256	1.207362949581	1
11	2270	1.207424949581	0
11	2270	1.207424949581	0
11	2311	1.207811217888	1
11	2311	1.207811217888	1
11	2328	1.207873217888	0
11	2328	1.207873217888	0
11	2581	1.220671464826	1
11	2581	1.220671464826	1
11	2599	1.220705464826	0
11	2599	1.220705464826	0
11	2644	1.22076046715	1
11	2644	1.22076046715	1
11	2662	1.22087446715	0
11	2662	1.22087446715	0
11	3088	1.290010172538	1
11	3088	1.290010172538	1
11	3111	1.290072172538	0
11	3111	1.290072172538	0
11	3144	1.291278680665	2
11	3144	1.291278680665	2
11	3158	1.291340680665	0
11	3158	1.291340680665	0
11	3204	1.291389562549	1
11	3204	1.291389562549	1
11	3217	1.291423562549	0
11	3217	1.291423562549	0
11	3235	1.291433562549	2
11	3235	1.291433562549	2
11	3248	1.291467562549	0
11	3248	1.291467562549	0
11	3268	1.291478444433	1
11	3268	1.291478444433	1
11	3281	1.291520444433	0
11	3281	1.291520444433	0
11	3300	1.291530444433	2
11	3300	1.291530444433	2
11	3322	1.291564444433	0
11	3322	1.291564444433	0
11	3345	1.291745444433	2
11	3345	1.291745444433	2
11	3358	1.291779444433	0
11	3358	1.291779444433	0
11	3383	1.291791070911	1
11	3383	1.291791070911	1
11	3402	1.291825070911	0
11	3402	1.291825070911	0
11	3413	1.291835070911	2
11	3413	1.291835070911	2
11	3426	1.291877070911	0
11	3426	1.291877070911	0
11	3454	1.291888697389	1