file 14387 1613776133                                           
version 2
run General-0-20210220-00:08:46-16712
attr configname General
attr datetime 20210220-00:08:46
attr experiment General
attr inifile Blackhole.ini
attr iterationvars $mobility=5
attr iterationvars2 "$mobility=5, $repetition=0"
attr measurement $mobility=5
attr mobility 5
attr network Blackhole_Network
attr processid 16712
attr repetition 0
attr replication #0
attr resultdir results
attr runnumber 0
attr seedset 0

vector 8  Blackhole_Network.blackhole[0].wlan[0].mgmt  dataQueueLen:vector  ETV
attr interpolationmode  sample-hold
attr title  "data queue length, vector"
vector 30  Blackhole_Network.originator[0].wlan[0].mgmt  dataQueueLen:vector  ETV
attr interpolationmode  sample-hold
attr title  "data queue length, vector"
vector 51  Blackhole_Network.destination[0].wlan[0].mgmt  dataQueueLen:vector  ETV
attr interpolationmode  sample-hold
attr title  "data queue length, vector"
vector 75  Blackhole_Network.node[0].wlan[0].mgmt  dataQueueLen:vector  ETV
attr interpolationmode  sample-hold
attr title  "data queue length, vector"
vector 99  Blackhole_Network.node[1].wlan[0].mgmt  dataQueueLen:vector  ETV
attr interpolationmode  sample-hold
attr title  "data queue length, vector"
vector 123  Blackhole_Network.node[2].wlan[0].mgmt  dataQueueLen:vector  ETV
attr interpolationmode  sample-hold
attr title  "data queue length, vector"
vector 147  Blackhole_Network.node[3].wlan[0].mgmt  dataQueueLen:vector  ETV
attr interpolationmode  sample-hold
attr title  "data queue length, vector"
vector 171  Blackhole_Network.node[4].wlan[0].mgmt  dataQueueLen:vector  ETV
attr interpolationmode  sample-hold
attr title  "data queue length, vector"
vector 195  Blackhole_Network.node[5].wlan[0].mgmt  dataQueueLen:vector  ETV
attr interpolationmode  sample-hold
attr title  "data queue length, vector"
vector 219  Blackhole_Network.node[6].wlan[0].mgmt  dataQueueLen:vector  ETV
attr interpolationmode  sample-hold
attr title  "data queue length, vector"
vector 243  Blackhole_Network.node[7].wlan[0].mgmt  dataQueueLen:vector  ETV
attr interpolationmode  sample-hold
attr title  "data queue length, vector"
vector 267  Blackhole_Network.node[8].wlan[0].mgmt  dataQueueLen:vector  ETV
attr interpolationmode  sample-hold
attr title  "data queue length, vector"
vector 291  Blackhole_Network.node[9].wlan[0].mgmt  dataQueueLen:vector  ETV
attr interpolationmode  sample-hold
attr title  "data queue length, vector"
vector 298  Blackhole_Network.blackhole[0].wlan[0].mac  RadioState  ETV
attr enum  "IDLE=0, RECV=1, SLEEP=3, TRANSMIT=2"
attr enumname  RadioState
vector 297  Blackhole_Network.blackhole[0].wlan[0].mac  State  ETV
attr enum  "BACKOFF=3, DEFER=1, IDLE=0, RECEIVE=8, WAITACK=4, WAITAIFS=2, WAITCTS=6, WAITMULTICAST=5, WAITSIFS=7"
attr enumname  Ieee80211Mac
vector 304  Blackhole_Network.originator[0].wlan[0].mac  RadioState  ETV
attr enum  "IDLE=0, RECV=1, SLEEP=3, TRANSMIT=2"
attr enumname  RadioState
vector 303  Blackhole_Network.originator[0].wlan[0].mac  State  ETV
attr enum  "BACKOFF=3, DEFER=1, IDLE=0, RECEIVE=8, WAITACK=4, WAITAIFS=2, WAITCTS=6, WAITMULTICAST=5, WAITSIFS=7"
attr enumname  Ieee80211Mac
vector 310  Blackhole_Network.destination[0].wlan[0].mac  RadioState  ETV
attr enum  "IDLE=0, RECV=1, SLEEP=3, TRANSMIT=2"
attr enumname  RadioState
vector 309  Blackhole_Network.destination[0].wlan[0].mac  State  ETV
attr enum  "BACKOFF=3, DEFER=1, IDLE=0, RECEIVE=8, WAITACK=4, WAITAIFS=2, WAITCTS=6, WAITMULTICAST=5, WAITSIFS=7"
attr enumname  Ieee80211Mac
vector 316  Blackhole_Network.node[0].wlan[0].mac  RadioState  ETV
attr enum  "IDLE=0, RECV=1, SLEEP=3, TRANSMIT=2"
attr enumname  RadioState
vector 315  Blackhole_Network.node[0].wlan[0].mac  State  ETV
attr enum  "BACKOFF=3, DEFER=1, IDLE=0, RECEIVE=8, WAITACK=4, WAITAIFS=2, WAITCTS=6, WAITMULTICAST=5, WAITSIFS=7"
attr enumname  Ieee80211Mac
vector 322  Blackhole_Network.node[1].wlan[0].mac  RadioState  ETV
attr enum  "IDLE=0, RECV=1, SLEEP=3, TRANSMIT=2"
attr enumname  RadioState
vector 321  Blackhole_Network.node[1].wlan[0].mac  State  ETV
attr enum  "BACKOFF=3, DEFER=1, IDLE=0, RECEIVE=8, WAITACK=4, WAITAIFS=2, WAITCTS=6, WAITMULTICAST=5, WAITSIFS=7"
attr enumname  Ieee80211Mac
vector 328  Blackhole_Network.node[2].wlan[0].mac  RadioState  ETV
attr enum  "IDLE=0, RECV=1, SLEEP=3, TRANSMIT=2"
attr enumname  RadioState
vector 327  Blackhole_Network.node[2].wlan[0].mac  State  ETV
attr enum  "BACKOFF=3, DEFER=1, IDLE=0, RECEIVE=8, WAITACK=4, WAITAIFS=2, WAITCTS=6, WAITMULTICAST=5, WAITSIFS=7"
attr enumname  Ieee80211Mac
vector 334  Blackhole_Network.node[3].wlan[0].mac  RadioState  ETV
attr enum  "IDLE=0, RECV=1, SLEEP=3, TRANSMIT=2"
attr enumname  RadioState
vector 333  Blackhole_Network.node[3].wlan[0].mac  State  ETV
attr enum  "BACKOFF=3, DEFER=1, IDLE=0, RECEIVE=8, WAITACK=4, WAITAIFS=2, WAITCTS=6, WAITMULTICAST=5, WAITSIFS=7"
attr enumname  Ieee80211Mac
vector 340  Blackhole_Network.node[4].wlan[0].mac  RadioState  ETV
attr enum  "IDLE=0, RECV=1, SLEEP=3, TRANSMIT=2"
attr enumname  RadioState
vector 339  Blackhole_Network.node[4].wlan[0].mac  State  ETV
attr enum  "BACKOFF=3, DEFER=1, IDLE=0, RECEIVE=8, WAITACK=4, WAITAIFS=2, WAITCTS=6, WAITMULTICAST=5, WAITSIFS=7"
attr enumname  Ieee80211Mac
vector 346  Blackhole_Network.node[5].wlan[0].mac  RadioState  ETV
attr enum  "IDLE=0, RECV=1, SLEEP=3, TRANSMIT=2"
attr enumname  RadioState
vector 345  Blackhole_Network.node[5].wlan[0].mac  State  ETV
attr enum  "BACKOFF=3, DEFER=1, IDLE=0, RECEIVE=8, WAITACK=4, WAITAIFS=2, WAITCTS=6, WAITMULTICAST=5, WAITSIFS=7"
attr enumname  Ieee80211Mac
vector 352  Blackhole_Network.node[6].wlan[0].mac  RadioState  ETV
attr enum  "IDLE=0, RECV=1, SLEEP=3, TRANSMIT=2"
attr enumname  RadioState
vector 351  Blackhole_Network.node[6].wlan[0].mac  State  ETV
attr enum  "BACKOFF=3, DEFER=1, IDLE=0, RECEIVE=8, WAITACK=4, WAITAIFS=2, WAITCTS=6, WAITMULTICAST=5, WAITSIFS=7"
attr enumname  Ieee80211Mac
vector 358  Blackhole_Network.node[7].wlan[0].mac  RadioState  ETV
attr enum  "IDLE=0, RECV=1, SLEEP=3, TRANSMIT=2"
attr enumname  RadioState
vector 357  Blackhole_Network.node[7].wlan[0].mac  State  ETV
attr enum  "BACKOFF=3, DEFER=1, IDLE=0, RECEIVE=8, WAITACK=4, WAITAIFS=2, WAITCTS=6, WAITMULTICAST=5, WAITSIFS=7"
attr enumname  Ieee80211Mac
vector 364  Blackhole_Network.node[8].wlan[0].mac  RadioState  ETV
attr enum  "IDLE=0, RECV=1, SLEEP=3, TRANSMIT=2"
attr enumname  RadioState
vector 363  Blackhole_Network.node[8].wlan[0].mac  State  ETV
attr enum  "BACKOFF=3, DEFER=1, IDLE=0, RECEIVE=8, WAITACK=4, WAITAIFS=2, WAITCTS=6, WAITMULTICAST=5, WAITSIFS=7"
attr enumname  Ieee80211Mac
vector 370  Blackhole_Network.node[9].wlan[0].mac  RadioState  ETV
attr enum  "IDLE=0, RECV=1, SLEEP=3, TRANSMIT=2"
attr enumname  RadioState
vector 369  Blackhole_Network.node[9].wlan[0].mac  State  ETV
attr enum  "BACKOFF=3, DEFER=1, IDLE=0, RECEIVE=8, WAITACK=4, WAITAIFS=2, WAITCTS=6, WAITMULTICAST=5, WAITSIFS=7"
attr enumname  Ieee80211Mac
vector 10  Blackhole_Network.blackhole[0].wlan[0].radio  bitrate:vector  ETV
attr interpolationmode  sample-hold
attr title  "tx bitrate, vector"
attr unit  bps
vector 12  Blackhole_Network.blackhole[0].wlan[0].radio  radioState:vector  ETV
attr interpolationmode  sample-hold
attr title  "radio state (enum), vector"
vector 11  Blackhole_Network.blackhole[0].wlan[0].radio  channelNo:vector  ETV
attr interpolationmode  sample-hold
attr title  "channel no, vector"
vector 32  Blackhole_Network.originator[0].wlan[0].radio  bitrate:vector  ETV
attr interpolationmode  sample-hold
attr title  "tx bitrate, vector"
attr unit  bps
vector 34  Blackhole_Network.originator[0].wlan[0].radio  radioState:vector  ETV
attr interpolationmode  sample-hold
attr title  "radio state (enum), vector"
vector 33  Blackhole_Network.originator[0].wlan[0].radio  channelNo:vector  ETV
attr interpolationmode  sample-hold
attr title  "channel no, vector"
vector 53  Blackhole_Network.destination[0].wlan[0].radio  bitrate:vector  ETV
attr interpolationmode  sample-hold
attr title  "tx bitrate, vector"
attr unit  bps
vector 55  Blackhole_Network.destination[0].wlan[0].radio  radioState:vector  ETV
attr interpolationmode  sample-hold
attr title  "radio state (enum), vector"
vector 54  Blackhole_Network.destination[0].wlan[0].radio  channelNo:vector  ETV
attr interpolationmode  sample-hold
attr title  "channel no, vector"
vector 77  Blackhole_Network.node[0].wlan[0].radio  bitrate:vector  ETV
attr interpolationmode  sample-hold
attr title  "tx bitrate, vector"
attr unit  bps
vector 79  Blackhole_Network.node[0].wlan[0].radio  radioState:vector  ETV
attr interpolationmode  sample-hold
attr title  "radio state (enum), vector"
vector 78  Blackhole_Network.node[0].wlan[0].radio  channelNo:vector  ETV
attr interpolationmode  sample-hold
attr title  "channel no, vector"
vector 101  Blackhole_Network.node[1].wlan[0].radio  bitrate:vector  ETV
attr interpolationmode  sample-hold
attr title  "tx bitrate, vector"
attr unit  bps
vector 103  Blackhole_Network.node[1].wlan[0].radio  radioState:vector  ETV
attr interpolationmode  sample-hold
attr title  "radio state (enum), vector"
vector 102  Blackhole_Network.node[1].wlan[0].radio  channelNo:vector  ETV
attr interpolationmode  sample-hold
attr title  "channel no, vector"
vector 125  Blackhole_Network.node[2].wlan[0].radio  bitrate:vector  ETV
attr interpolationmode  sample-hold
attr title  "tx bitrate, vector"
attr unit  bps
vector 127  Blackhole_Network.node[2].wlan[0].radio  radioState:vector  ETV
attr interpolationmode  sample-hold
attr title  "radio state (enum), vector"
vector 126  Blackhole_Network.node[2].wlan[0].radio  channelNo:vector  ETV
attr interpolationmode  sample-hold
attr title  "channel no, vector"
vector 149  Blackhole_Network.node[3].wlan[0].radio  bitrate:vector  ETV
attr interpolationmode  sample-hold
attr title  "tx bitrate, vector"
attr unit  bps
vector 151  Blackhole_Network.node[3].wlan[0].radio  radioState:vector  ETV
attr interpolationmode  sample-hold
attr title  "radio state (enum), vector"
vector 150  Blackhole_Network.node[3].wlan[0].radio  channelNo:vector  ETV
attr interpolationmode  sample-hold
attr title  "channel no, vector"
vector 173  Blackhole_Network.node[4].wlan[0].radio  bitrate:vector  ETV
attr interpolationmode  sample-hold
attr title  "tx bitrate, vector"
attr unit  bps
vector 175  Blackhole_Network.node[4].wlan[0].radio  radioState:vector  ETV
attr interpolationmode  sample-hold
attr title  "radio state (enum), vector"
vector 174  Blackhole_Network.node[4].wlan[0].radio  channelNo:vector  ETV
attr interpolationmode  sample-hold
attr title  "channel no, vector"
vector 197  Blackhole_Network.node[5].wlan[0].radio  bitrate:vector  ETV
attr interpolationmode  sample-hold
attr title  "tx bitrate, vector"
attr unit  bps
vector 199  Blackhole_Network.node[5].wlan[0].radio  radioState:vector  ETV
attr interpolationmode  sample-hold
attr title  "radio state (enum), vector"
vector 198  Blackhole_Network.node[5].wlan[0].radio  channelNo:vector  ETV
attr interpolationmode  sample-hold
attr title  "channel no, vector"
vector 221  Blackhole_Network.node[6].wlan[0].radio  bitrate:vector  ETV
attr interpolationmode  sample-hold
attr title  "tx bitrate, vector"
attr unit  bps
vector 223  Blackhole_Network.node[6].wlan[0].radio  radioState:vector  ETV
attr interpolationmode  sample-hold
attr title  "radio state (enum), vector"
vector 222  Blackhole_Network.node[6].wlan[0].radio  channelNo:vector  ETV
attr interpolationmode  sample-hold
attr title  "channel no, vector"
vector 245  Blackhole_Network.node[7].wlan[0].radio  bitrate:vector  ETV
attr interpolationmode  sample-hold
attr title  "tx bitrate, vector"
attr unit  bps
vector 247  Blackhole_Network.node[7].wlan[0].radio  radioState:vector  ETV
attr interpolationmode  sample-hold
attr title  "radio state (enum), vector"
vector 246  Blackhole_Network.node[7].wlan[0].radio  channelNo:vector  ETV
attr interpolationmode  sample-hold
attr title  "channel no, vector"
vector 269  Blackhole_Network.node[8].wlan[0].radio  bitrate:vector  ETV
attr interpolationmode  sample-hold
attr title  "tx bitrate, vector"
attr unit  bps
vector 271  Blackhole_Network.node[8].wlan[0].radio  radioState:vector  ETV
attr interpolationmode  sample-hold
attr title  "radio state (enum), vector"
vector 270  Blackhole_Network.node[8].wlan[0].radio  channelNo:vector  ETV
attr interpolationmode  sample-hold
attr title  "channel no, vector"
vector 293  Blackhole_Network.node[9].wlan[0].radio  bitrate:vector  ETV
attr interpolationmode  sample-hold
attr title  "tx bitrate, vector"
attr unit  bps
vector 295  Blackhole_Network.node[9].wlan[0].radio  radioState:vector  ETV
attr interpolationmode  sample-hold
attr title  "radio state (enum), vector"
vector 294  Blackhole_Network.node[9].wlan[0].radio  channelNo:vector  ETV
attr interpolationmode  sample-hold
attr title  "channel no, vector"
8	13170 9 0 0 0 0 1 0 0 0 0
10	13179 17 0 0 0 0 1 54000000 54000000 54000000 2.916e+015
11	13196 10 0 0 0 0 1 0 0 0 0
12	13206 10 0 0 0 0 1 0 0 0 0
30	13216 10 0 0 0 0 1 0 0 0 0
32	13226 17 0 0 0 0 1 54000000 54000000 54000000 2.916e+015
33	13243 10 0 0 0 0 1 0 0 0 0
34	13253 10 0 0 0 0 1 0 0 0 0
51	13263 10 0 0 0 0 1 0 0 0 0
53	13273 17 0 0 0 0 1 54000000 54000000 54000000 2.916e+015
54	13290 10 0 0 0 0 1 0 0 0 0
55	13300 10 0 0 0 0 1 0 0 0 0
75	13310 10 0 0 0 0 1 0 0 0 0
77	13320 17 0 0 0 0 1 54000000 54000000 54000000 2.916e+015
78	13337 10 0 0 0 0 1 0 0 0 0
79	13347 10 0 0 0 0 1 0 0 0 0
99	13357 10 0 0 0 0 1 0 0 0 0
101	13367 18 0 0 0 0 1 54000000 54000000 54000000 2.916e+015
102	13385 11 0 0 0 0 1 0 0 0 0
103	13396 11 0 0 0 0 1 0 0 0 0
123	13407 11 0 0 0 0 1 0 0 0 0
125	13418 18 0 0 0 0 1 54000000 54000000 54000000 2.916e+015
126	13436 11 0 0 0 0 1 0 0 0 0
127	13447 11 0 0 0 0 1 0 0 0 0
147	13458 11 0 0 0 0 1 0 0 0 0
149	13469 18 0 0 0 0 1 54000000 54000000 54000000 2.916e+015
150	13487 11 0 0 0 0 1 0 0 0 0
151	13498 11 0 0 0 0 1 0 0 0 0
171	13509 11 0 0 0 0 1 0 0 0 0
173	13520 18 0 0 0 0 1 54000000 54000000 54000000 2.916e+015
174	13538 11 0 0 0 0 1 0 0 0 0
175	13549 11 0 0 0 0 1 0 0 0 0
195	13560 11 0 0 0 0 1 0 0 0 0
197	13571 18 0 0 0 0 1 54000000 54000000 54000000 2.916e+015
198	13589 11 0 0 0 0 1 0 0 0 0
199	13600 11 0 0 0 0 1 0 0 0 0
219	13611 11 0 0 0 0 1 0 0 0 0
221	13622 18 0 0 0 0 1 54000000 54000000 54000000 2.916e+015
222	13640 11 0 0 0 0 1 0 0 0 0
223	13651 11 0 0 0 0 1 0 0 0 0
243	13662 11 0 0 0 0 1 0 0 0 0
245	13673 18 0 0 0 0 1 54000000 54000000 54000000 2.916e+015
246	13691 11 0 0 0 0 1 0 0 0 0
247	13702 11 0 0 0 0 1 0 0 0 0
267	13713 11 0 0 0 0 1 0 0 0 0
269	13724 18 0 0 0 0 1 54000000 54000000 54000000 2.916e+015
270	13742 11 0 0 0 0 1 0 0 0 0
271	13753 11 0 0 0 0 1 0 0 0 0
291	13764 11 0 0 0 0 1 0 0 0 0
293	13775 18 0 0 0 0 1 54000000 54000000 54000000 2.916e+015
294	13793 11 0 0 0 0 1 0 0 0 0
295	13804 11 0 0 0 0 1 0 0 0 0
297	13815 22 0 0 0 0 2 0 0 0 0
298	13837 22 0 0 0 0 2 0 0 0 0
303	13859 22 0 0 0 0 2 0 0 0 0
304	13881 22 0 0 0 0 2 0 0 0 0
309	13903 22 0 0 0 0 2 0 0 0 0
310	13925 22 0 0 0 0 2 0 0 0 0
315	13947 22 0 0 0 0 2 0 0 0 0
316	13969 22 0 0 0 0 2 0 0 0 0
321	13991 22 0 0 0 0 2 0 0 0 0
322	14013 22 0 0 0 0 2 0 0 0 0
327	14035 22 0 0 0 0 2 0 0 0 0
328	14057 22 0 0 0 0 2 0 0 0 0
333	14079 22 0 0 0 0 2 0 0 0 0
334	14101 22 0 0 0 0 2 0 0 0 0
339	14123 22 0 0 0 0 2 0 0 0 0
340	14145 22 0 0 0 0 2 0 0 0 0
345	14167 22 0 0 0 0 2 0 0 0 0
346	14189 22 0 0 0 0 2 0 0 0 0
351	14211 22 0 0 0 0 2 0 0 0 0
352	14233 22 0 0 0 0 2 0 0 0 0
357	14255 22 0 0 0 0 2 0 0 0 0
358	14277 22 0 0 0 0 2 0 0 0 0
363	14299 22 0 0 0 0 2 0 0 0 0
364	14321 22 0 0 0 0 2 0 0 0 0
369	14343 22 0 0 0 0 2 0 0 0 0
370	14365 22 0 0 0 0 2 0 0 0 0
