version 2
run General-0-20210218-22:51:36-17992
attr configname General
attr datetime 20210218-22:51:36
attr experiment General
attr inifile Blackhole.ini
attr iterationvars $mobility=5
attr iterationvars2 "$mobility=5, $repetition=0"
attr measurement $mobility=5
attr mobility 5
attr network Blackhole_Network
attr processid 17992
attr repetition 0
attr replication #0
attr resultdir results
attr runnumber 0
attr seedset 0

vector 8  Blackhole_Network.blackhole[0].wlan[0].mgmt  dataQueueLen:vector  ETV
attr interpolationmode  sample-hold
attr title  "data queue length, vector"
vector 30  Blackhole_Network.originator[0].wlan[0].mgmt  dataQueueLen:vector  ETV
attr interpolationmode  sample-hold
attr title  "data queue length, vector"
vector 51  Blackhole_Network.destination[0].wlan[0].mgmt  dataQueueLen:vector  ETV
attr interpolationmode  sample-hold
attr title  "data queue length, vector"
vector 75  Blackhole_Network.node[0].wlan[0].mgmt  dataQueueLen:vector  ETV
attr interpolationmode  sample-hold
attr title  "data queue length, vector"
vector 99  Blackhole_Network.node[1].wlan[0].mgmt  dataQueueLen:vector  ETV
attr interpolationmode  sample-hold
attr title  "data queue length, vector"
vector 123  Blackhole_Network.node[2].wlan[0].mgmt  dataQueueLen:vector  ETV
attr interpolationmode  sample-hold
attr title  "data queue length, vector"
vector 147  Blackhole_Network.node[3].wlan[0].mgmt  dataQueueLen:vector  ETV
attr interpolationmode  sample-hold
attr title  "data queue length, vector"
vector 171  Blackhole_Network.node[4].wlan[0].mgmt  dataQueueLen:vector  ETV
attr interpolationmode  sample-hold
attr title  "data queue length, vector"
vector 195  Blackhole_Network.node[5].wlan[0].mgmt  dataQueueLen:vector  ETV
attr interpolationmode  sample-hold
attr title  "data queue length, vector"
vector 219  Blackhole_Network.node[6].wlan[0].mgmt  dataQueueLen:vector  ETV
attr interpolationmode  sample-hold
attr title  "data queue length, vector"
vector 243  Blackhole_Network.node[7].wlan[0].mgmt  dataQueueLen:vector  ETV
attr interpolationmode  sample-hold
attr title  "data queue length, vector"
vector 267  Blackhole_Network.node[8].wlan[0].mgmt  dataQueueLen:vector  ETV
attr interpolationmode  sample-hold
attr title  "data queue length, vector"
vector 291  Blackhole_Network.node[9].wlan[0].mgmt  dataQueueLen:vector  ETV
attr interpolationmode  sample-hold
attr title  "data queue length, vector"
vector 298  Blackhole_Network.blackhole[0].wlan[0].mac  RadioState  ETV
attr enum  "IDLE=0, RECV=1, SLEEP=3, TRANSMIT=2"
attr enumname  RadioState
vector 297  Blackhole_Network.blackhole[0].wlan[0].mac  State  ETV
attr enum  "BACKOFF=3, DEFER=1, IDLE=0, RECEIVE=8, WAITACK=4, WAITAIFS=2, WAITCTS=6, WAITMULTICAST=5, WAITSIFS=7"
attr enumname  Ieee80211Mac
vector 304  Blackhole_Network.originator[0].wlan[0].mac  RadioState  ETV
attr enum  "IDLE=0, RECV=1, SLEEP=3, TRANSMIT=2"
attr enumname  RadioState
vector 303  Blackhole_Network.originator[0].wlan[0].mac  State  ETV
attr enum  "BACKOFF=3, DEFER=1, IDLE=0, RECEIVE=8, WAITACK=4, WAITAIFS=2, WAITCTS=6, WAITMULTICAST=5, WAITSIFS=7"
attr enumname  Ieee80211Mac
vector 310  Blackhole_Network.destination[0].wlan[0].mac  RadioState  ETV
attr enum  "IDLE=0, RECV=1, SLEEP=3, TRANSMIT=2"
attr enumname  RadioState
vector 309  Blackhole_Network.destination[0].wlan[0].mac  State  ETV
attr enum  "BACKOFF=3, DEFER=1, IDLE=0, RECEIVE=8, WAITACK=4, WAITAIFS=2, WAITCTS=6, WAITMULTICAST=5, WAITSIFS=7"
attr enumname  Ieee80211Mac
vector 316  Blackhole_Network.node[0].wlan[0].mac  RadioState  ETV
attr enum  "IDLE=0, RECV=1, SLEEP=3, TRANSMIT=2"
attr enumname  RadioState
vector 315  Blackhole_Network.node[0].wlan[0].mac  State  ETV
attr enum  "BACKOFF=3, DEFER=1, IDLE=0, RECEIVE=8, WAITACK=4, WAITAIFS=2, WAITCTS=6, WAITMULTICAST=5, WAITSIFS=7"
attr enumname  Ieee80211Mac
vector 322  Blackhole_Network.node[1].wlan[0].mac  RadioState  ETV
attr enum  "IDLE=0, RECV=1, SLEEP=3, TRANSMIT=2"
attr enumname  RadioState
vector 321  Blackhole_Network.node[1].wlan[0].mac  State  ETV
attr enum  "BACKOFF=3, DEFER=1, IDLE=0, RECEIVE=8, WAITACK=4, WAITAIFS=2, WAITCTS=6, WAITMULTICAST=5, WAITSIFS=7"
attr enumname  Ieee80211Mac
vector 328  Blackhole_Network.node[2].wlan[0].mac  RadioState  ETV
attr enum  "IDLE=0, RECV=1, SLEEP=3, TRANSMIT=2"
attr enumname  RadioState
vector 327  Blackhole_Network.node[2].wlan[0].mac  State  ETV
attr enum  "BACKOFF=3, DEFER=1, IDLE=0, RECEIVE=8, WAITACK=4, WAITAIFS=2, WAITCTS=6, WAITMULTICAST=5, WAITSIFS=7"
attr enumname  Ieee80211Mac
vector 334  Blackhole_Network.node[3].wlan[0].mac  RadioState  ETV
attr enum  "IDLE=0, RECV=1, SLEEP=3, TRANSMIT=2"
attr enumname  RadioState
vector 333  Blackhole_Network.node[3].wlan[0].mac  State  ETV
attr enum  "BACKOFF=3, DEFER=1, IDLE=0, RECEIVE=8, WAITACK=4, WAITAIFS=2, WAITCTS=6, WAITMULTICAST=5, WAITSIFS=7"
attr enumname  Ieee80211Mac
vector 340  Blackhole_Network.node[4].wlan[0].mac  RadioState  ETV
attr enum  "IDLE=0, RECV=1, SLEEP=3, TRANSMIT=2"
attr enumname  RadioState
vector 339  Blackhole_Network.node[4].wlan[0].mac  State  ETV
attr enum  "BACKOFF=3, DEFER=1, IDLE=0, RECEIVE=8, WAITACK=4, WAITAIFS=2, WAITCTS=6, WAITMULTICAST=5, WAITSIFS=7"
attr enumname  Ieee80211Mac
vector 346  Blackhole_Network.node[5].wlan[0].mac  RadioState  ETV
attr enum  "IDLE=0, RECV=1, SLEEP=3, TRANSMIT=2"
attr enumname  RadioState
vector 345  Blackhole_Network.node[5].wlan[0].mac  State  ETV
attr enum  "BACKOFF=3, DEFER=1, IDLE=0, RECEIVE=8, WAITACK=4, WAITAIFS=2, WAITCTS=6, WAITMULTICAST=5, WAITSIFS=7"
attr enumname  Ieee80211Mac
vector 352  Blackhole_Network.node[6].wlan[0].mac  RadioState  ETV
attr enum  "IDLE=0, RECV=1, SLEEP=3, TRANSMIT=2"
attr enumname  RadioState
vector 351  Blackhole_Network.node[6].wlan[0].mac  State  ETV
attr enum  "BACKOFF=3, DEFER=1, IDLE=0, RECEIVE=8, WAITACK=4, WAITAIFS=2, WAITCTS=6, WAITMULTICAST=5, WAITSIFS=7"
attr enumname  Ieee80211Mac
vector 358  Blackhole_Network.node[7].wlan[0].mac  RadioState  ETV
attr enum  "IDLE=0, RECV=1, SLEEP=3, TRANSMIT=2"
attr enumname  RadioState
vector 357  Blackhole_Network.node[7].wlan[0].mac  State  ETV
attr enum  "BACKOFF=3, DEFER=1, IDLE=0, RECEIVE=8, WAITACK=4, WAITAIFS=2, WAITCTS=6, WAITMULTICAST=5, WAITSIFS=7"
attr enumname  Ieee80211Mac
vector 364  Blackhole_Network.node[8].wlan[0].mac  RadioState  ETV
attr enum  "IDLE=0, RECV=1, SLEEP=3, TRANSMIT=2"
attr enumname  RadioState
vector 363  Blackhole_Network.node[8].wlan[0].mac  State  ETV
attr enum  "BACKOFF=3, DEFER=1, IDLE=0, RECEIVE=8, WAITACK=4, WAITAIFS=2, WAITCTS=6, WAITMULTICAST=5, WAITSIFS=7"
attr enumname  Ieee80211Mac
vector 370  Blackhole_Network.node[9].wlan[0].mac  RadioState  ETV
attr enum  "IDLE=0, RECV=1, SLEEP=3, TRANSMIT=2"
attr enumname  RadioState
vector 369  Blackhole_Network.node[9].wlan[0].mac  State  ETV
attr enum  "BACKOFF=3, DEFER=1, IDLE=0, RECEIVE=8, WAITACK=4, WAITAIFS=2, WAITCTS=6, WAITMULTICAST=5, WAITSIFS=7"
attr enumname  Ieee80211Mac
vector 10  Blackhole_Network.blackhole[0].wlan[0].radio  bitrate:vector  ETV
attr interpolationmode  sample-hold
attr title  "tx bitrate, vector"
attr unit  bps
vector 12  Blackhole_Network.blackhole[0].wlan[0].radio  radioState:vector  ETV
attr interpolationmode  sample-hold
attr title  "radio state (enum), vector"
vector 11  Blackhole_Network.blackhole[0].wlan[0].radio  channelNo:vector  ETV
attr interpolationmode  sample-hold
attr title  "channel no, vector"
vector 32  Blackhole_Network.originator[0].wlan[0].radio  bitrate:vector  ETV
attr interpolationmode  sample-hold
attr title  "tx bitrate, vector"
attr unit  bps
vector 34  Blackhole_Network.originator[0].wlan[0].radio  radioState:vector  ETV
attr interpolationmode  sample-hold
attr title  "radio state (enum), vector"
vector 33  Blackhole_Network.originator[0].wlan[0].radio  channelNo:vector  ETV
attr interpolationmode  sample-hold
attr title  "channel no, vector"
vector 53  Blackhole_Network.destination[0].wlan[0].radio  bitrate:vector  ETV
attr interpolationmode  sample-hold
attr title  "tx bitrate, vector"
attr unit  bps
vector 55  Blackhole_Network.destination[0].wlan[0].radio  radioState:vector  ETV
attr interpolationmode  sample-hold
attr title  "radio state (enum), vector"
vector 54  Blackhole_Network.destination[0].wlan[0].radio  channelNo:vector  ETV
attr interpolationmode  sample-hold
attr title  "channel no, vector"
vector 77  Blackhole_Network.node[0].wlan[0].radio  bitrate:vector  ETV
attr interpolationmode  sample-hold
attr title  "tx bitrate, vector"
attr unit  bps
vector 79  Blackhole_Network.node[0].wlan[0].radio  radioState:vector  ETV
attr interpolationmode  sample-hold
attr title  "radio state (enum), vector"
vector 78  Blackhole_Network.node[0].wlan[0].radio  channelNo:vector  ETV
attr interpolationmode  sample-hold
attr title  "channel no, vector"
vector 101  Blackhole_Network.node[1].wlan[0].radio  bitrate:vector  ETV
attr interpolationmode  sample-hold
attr title  "tx bitrate, vector"
attr unit  bps
vector 103  Blackhole_Network.node[1].wlan[0].radio  radioState:vector  ETV
attr interpolationmode  sample-hold
attr title  "radio state (enum), vector"
vector 102  Blackhole_Network.node[1].wlan[0].radio  channelNo:vector  ETV
attr interpolationmode  sample-hold
attr title  "channel no, vector"
vector 125  Blackhole_Network.node[2].wlan[0].radio  bitrate:vector  ETV
attr interpolationmode  sample-hold
attr title  "tx bitrate, vector"
attr unit  bps
vector 127  Blackhole_Network.node[2].wlan[0].radio  radioState:vector  ETV
attr interpolationmode  sample-hold
attr title  "radio state (enum), vector"
vector 126  Blackhole_Network.node[2].wlan[0].radio  channelNo:vector  ETV
attr interpolationmode  sample-hold
attr title  "channel no, vector"
vector 149  Blackhole_Network.node[3].wlan[0].radio  bitrate:vector  ETV
attr interpolationmode  sample-hold
attr title  "tx bitrate, vector"
attr unit  bps
vector 151  Blackhole_Network.node[3].wlan[0].radio  radioState:vector  ETV
attr interpolationmode  sample-hold
attr title  "radio state (enum), vector"
vector 150  Blackhole_Network.node[3].wlan[0].radio  channelNo:vector  ETV
attr interpolationmode  sample-hold
attr title  "channel no, vector"
vector 173  Blackhole_Network.node[4].wlan[0].radio  bitrate:vector  ETV
attr interpolationmode  sample-hold
attr title  "tx bitrate, vector"
attr unit  bps
vector 175  Blackhole_Network.node[4].wlan[0].radio  radioState:vector  ETV
attr interpolationmode  sample-hold
attr title  "radio state (enum), vector"
vector 174  Blackhole_Network.node[4].wlan[0].radio  channelNo:vector  ETV
attr interpolationmode  sample-hold
attr title  "channel no, vector"
vector 197  Blackhole_Network.node[5].wlan[0].radio  bitrate:vector  ETV
attr interpolationmode  sample-hold
attr title  "tx bitrate, vector"
attr unit  bps
vector 199  Blackhole_Network.node[5].wlan[0].radio  radioState:vector  ETV
attr interpolationmode  sample-hold
attr title  "radio state (enum), vector"
vector 198  Blackhole_Network.node[5].wlan[0].radio  channelNo:vector  ETV
attr interpolationmode  sample-hold
attr title  "channel no, vector"
vector 221  Blackhole_Network.node[6].wlan[0].radio  bitrate:vector  ETV
attr interpolationmode  sample-hold
attr title  "tx bitrate, vector"
attr unit  bps
vector 223  Blackhole_Network.node[6].wlan[0].radio  radioState:vector  ETV
attr interpolationmode  sample-hold
attr title  "radio state (enum), vector"
vector 222  Blackhole_Network.node[6].wlan[0].radio  channelNo:vector  ETV
attr interpolationmode  sample-hold
attr title  "channel no, vector"
vector 245  Blackhole_Network.node[7].wlan[0].radio  bitrate:vector  ETV
attr interpolationmode  sample-hold
attr title  "tx bitrate, vector"
attr unit  bps
vector 247  Blackhole_Network.node[7].wlan[0].radio  radioState:vector  ETV
attr interpolationmode  sample-hold
attr title  "radio state (enum), vector"
vector 246  Blackhole_Network.node[7].wlan[0].radio  channelNo:vector  ETV
attr interpolationmode  sample-hold
attr title  "channel no, vector"
vector 269  Blackhole_Network.node[8].wlan[0].radio  bitrate:vector  ETV
attr interpolationmode  sample-hold
attr title  "tx bitrate, vector"
attr unit  bps
vector 271  Blackhole_Network.node[8].wlan[0].radio  radioState:vector  ETV
attr interpolationmode  sample-hold
attr title  "radio state (enum), vector"
vector 270  Blackhole_Network.node[8].wlan[0].radio  channelNo:vector  ETV
attr interpolationmode  sample-hold
attr title  "channel no, vector"
vector 293  Blackhole_Network.node[9].wlan[0].radio  bitrate:vector  ETV
attr interpolationmode  sample-hold
attr title  "tx bitrate, vector"
attr unit  bps
vector 295  Blackhole_Network.node[9].wlan[0].radio  radioState:vector  ETV
attr interpolationmode  sample-hold
attr title  "radio state (enum), vector"
vector 294  Blackhole_Network.node[9].wlan[0].radio  channelNo:vector  ETV
attr interpolationmode  sample-hold
attr title  "channel no, vector"
vector 129  Blackhole_Network.node[3].udpApp[0]  sentPk:vector(packetBytes)  ETV
attr interpolationmode  none
attr source  sentPk
attr title  "packets sent, vector(packetBytes)"
vector 134  Blackhole_Network.node[3].udp  sentPk:vector(packetBytes)  ETV
attr interpolationmode  none
attr source  sentPk
attr title  "packets sent, vector(packetBytes)"
vector 336  Blackhole_Network.node[3].wlan[0].mac  "throughput AC0"  ETV
vector 360  Blackhole_Network.node[7].wlan[0].mac  "throughput AC0"  ETV
vector 306  Blackhole_Network.originator[0].wlan[0].mac  "throughput AC0"  ETV
vector 362  Blackhole_Network.node[7].wlan[0].radio  snirVector  ETV
vector 308  Blackhole_Network.originator[0].wlan[0].radio  snirVector  ETV
vector 201  Blackhole_Network.node[6].udpApp[0]  sentPk:vector(packetBytes)  ETV
attr interpolationmode  none
attr source  sentPk
attr title  "packets sent, vector(packetBytes)"
vector 206  Blackhole_Network.node[6].udp  sentPk:vector(packetBytes)  ETV
attr interpolationmode  none
attr source  sentPk
attr title  "packets sent, vector(packetBytes)"
vector 354  Blackhole_Network.node[6].wlan[0].mac  "throughput AC0"  ETV
vector 312  Blackhole_Network.destination[0].wlan[0].mac  "throughput AC0"  ETV
vector 300  Blackhole_Network.blackhole[0].wlan[0].mac  "throughput AC0"  ETV
vector 314  Blackhole_Network.destination[0].wlan[0].radio  snirVector  ETV
vector 302  Blackhole_Network.blackhole[0].wlan[0].radio  snirVector  ETV
vector 273  Blackhole_Network.node[9].udpApp[0]  sentPk:vector(packetBytes)  ETV
attr interpolationmode  none
attr source  sentPk
attr title  "packets sent, vector(packetBytes)"
vector 278  Blackhole_Network.node[9].udp  sentPk:vector(packetBytes)  ETV
attr interpolationmode  none
attr source  sentPk
attr title  "packets sent, vector(packetBytes)"
vector 372  Blackhole_Network.node[9].wlan[0].mac  "throughput AC0"  ETV
vector 366  Blackhole_Network.node[8].wlan[0].mac  "throughput AC0"  ETV
vector 342  Blackhole_Network.node[4].wlan[0].mac  "throughput AC0"  ETV
vector 368  Blackhole_Network.node[8].wlan[0].radio  snirVector  ETV
vector 344  Blackhole_Network.node[4].wlan[0].radio  snirVector  ETV
vector 81  Blackhole_Network.node[1].udpApp[0]  sentPk:vector(packetBytes)  ETV
attr interpolationmode  none
attr source  sentPk
attr title  "packets sent, vector(packetBytes)"
vector 86  Blackhole_Network.node[1].udp  sentPk:vector(packetBytes)  ETV
attr interpolationmode  none
attr source  sentPk
attr title  "packets sent, vector(packetBytes)"
vector 324  Blackhole_Network.node[1].wlan[0].mac  "throughput AC0"  ETV
vector 348  Blackhole_Network.node[5].wlan[0].mac  "throughput AC0"  ETV
vector 350  Blackhole_Network.node[5].wlan[0].radio  snirVector  ETV
vector 15  Blackhole_Network.originator[0].udpApp[0]  sentPk:vector(packetBytes)  ETV
attr interpolationmode  none
attr source  sentPk
attr title  "packets sent, vector(packetBytes)"
vector 17  Blackhole_Network.originator[0].udp  sentPk:vector(packetBytes)  ETV
attr interpolationmode  none
attr source  sentPk
attr title  "packets sent, vector(packetBytes)"
vector 330  Blackhole_Network.node[2].wlan[0].mac  "throughput AC0"  ETV
vector 332  Blackhole_Network.node[2].wlan[0].radio  snirVector  ETV
vector 338  Blackhole_Network.node[3].wlan[0].radio  snirVector  ETV
vector 105  Blackhole_Network.node[2].udpApp[0]  sentPk:vector(packetBytes)  ETV
attr interpolationmode  none
attr source  sentPk
attr title  "packets sent, vector(packetBytes)"
vector 110  Blackhole_Network.node[2].udp  sentPk:vector(packetBytes)  ETV
attr interpolationmode  none
attr source  sentPk
attr title  "packets sent, vector(packetBytes)"
vector 318  Blackhole_Network.node[0].wlan[0].mac  "throughput AC0"  ETV
vector 320  Blackhole_Network.node[0].wlan[0].radio  snirVector  ETV
vector 356  Blackhole_Network.node[6].wlan[0].radio  snirVector  ETV
vector 319  Blackhole_Network.node[0].wlan[0].mac  "Mac delay AC0"  ETV
vector 301  Blackhole_Network.blackhole[0].wlan[0].mac  "Mac delay AC0"  ETV
vector 361  Blackhole_Network.node[7].wlan[0].mac  "Mac delay AC0"  ETV
vector 236  Blackhole_Network.node[7].networkLayer.ip  rcvdPkt:vector  ETV
attr interpolationmode  none
attr title  "Number of packet received, vector"
vector 337  Blackhole_Network.node[3].wlan[0].mac  "Mac delay AC0"  ETV
vector 1  Blackhole_Network.blackhole[0].networkLayer.ip  rcvdPkt:vector  ETV
attr interpolationmode  none
attr title  "Number of packet received, vector"
vector 3  Blackhole_Network.blackhole[0].networkLayer.ip  blacked:vector  ETV
attr interpolationmode  none
attr title  "Number of blackhole drops, vector"
vector 299  Blackhole_Network.blackhole[0].wlan[0].mac  "jitter AC0"  ETV
vector 317  Blackhole_Network.node[0].wlan[0].mac  "jitter AC0"  ETV
vector 359  Blackhole_Network.node[7].wlan[0].mac  "jitter AC0"  ETV
vector 335  Blackhole_Network.node[3].wlan[0].mac  "jitter AC0"  ETV
vector 225  Blackhole_Network.node[7].udpApp[0]  sentPk:vector(packetBytes)  ETV
attr interpolationmode  none
attr source  sentPk
attr title  "packets sent, vector(packetBytes)"
vector 230  Blackhole_Network.node[7].udp  sentPk:vector(packetBytes)  ETV
attr interpolationmode  none
attr source  sentPk
attr title  "packets sent, vector(packetBytes)"
vector 374  Blackhole_Network.node[9].wlan[0].radio  snirVector  ETV
vector 116  Blackhole_Network.node[2].networkLayer.ip  rcvdPkt:vector  ETV
attr interpolationmode  none
attr title  "Number of packet received, vector"
vector 111  Blackhole_Network.node[2].udp  rcvdPk:vector(packetBytes)  ETV
attr interpolationmode  none
attr source  rcvdPk
attr title  "packets received, vector(packetBytes)"
vector 112  Blackhole_Network.node[2].udp  passedUpPk:vector(count)  ETV
attr interpolationmode  none
attr title  "packets passed up, vector(count)"
vector 106  Blackhole_Network.node[2].udpApp[0]  rcvdPk:vector(packetBytes)  ETV
attr interpolationmode  none
attr source  rcvdPk
attr title  "packets received, vector(packetBytes)"
vector 109  Blackhole_Network.node[2].udpApp[0]  endToEndDelay:vector  ETV
attr interpolationmode  none
attr source  messageAge(rcvdPk)
attr title  "delay, vector"
attr unit  s
vector 326  Blackhole_Network.node[1].wlan[0].radio  snirVector  ETV
vector 313  Blackhole_Network.destination[0].wlan[0].mac  "Mac delay AC0"  ETV
vector 307  Blackhole_Network.originator[0].wlan[0].mac  "Mac delay AC0"  ETV
vector 305  Blackhole_Network.originator[0].wlan[0].mac  "jitter AC0"  ETV
vector 311  Blackhole_Network.destination[0].wlan[0].mac  "jitter AC0"  ETV
vector 153  Blackhole_Network.node[4].udpApp[0]  sentPk:vector(packetBytes)  ETV
attr interpolationmode  none
attr source  sentPk
attr title  "packets sent, vector(packetBytes)"
vector 158  Blackhole_Network.node[4].udp  sentPk:vector(packetBytes)  ETV
attr interpolationmode  none
attr source  sentPk
attr title  "packets sent, vector(packetBytes)"
vector 35  Blackhole_Network.originator[0].wlan[0].radio  lossRate:vector  ETV
attr interpolationmode  backward-sample-hold
attr title  "packet loss rate, vector"
vector 177  Blackhole_Network.node[5].udpApp[0]  sentPk:vector(packetBytes)  ETV
attr interpolationmode  none
attr source  sentPk
attr title  "packets sent, vector(packetBytes)"
vector 182  Blackhole_Network.node[5].udp  sentPk:vector(packetBytes)  ETV
attr interpolationmode  none
attr source  sentPk
attr title  "packets sent, vector(packetBytes)"
vector 57  Blackhole_Network.node[0].udpApp[0]  sentPk:vector(packetBytes)  ETV
attr interpolationmode  none
attr source  sentPk
attr title  "packets sent, vector(packetBytes)"
vector 62  Blackhole_Network.node[0].udp  sentPk:vector(packetBytes)  ETV
attr interpolationmode  none
attr source  sentPk
attr title  "packets sent, vector(packetBytes)"
vector 248  Blackhole_Network.node[7].wlan[0].radio  lossRate:vector  ETV
attr interpolationmode  backward-sample-hold
attr title  "packet loss rate, vector"
vector 249  Blackhole_Network.node[8].udpApp[0]  sentPk:vector(packetBytes)  ETV
attr interpolationmode  none
attr source  sentPk
attr title  "packets sent, vector(packetBytes)"
vector 254  Blackhole_Network.node[8].udp  sentPk:vector(packetBytes)  ETV
attr interpolationmode  none
attr source  sentPk
attr title  "packets sent, vector(packetBytes)"
vector 164  Blackhole_Network.node[4].networkLayer.ip  rcvdPkt:vector  ETV
attr interpolationmode  none
attr title  "Number of packet received, vector"
vector 159  Blackhole_Network.node[4].udp  rcvdPk:vector(packetBytes)  ETV
attr interpolationmode  none
attr source  rcvdPk
attr title  "packets received, vector(packetBytes)"
vector 160  Blackhole_Network.node[4].udp  passedUpPk:vector(count)  ETV
attr interpolationmode  none
attr title  "packets passed up, vector(count)"
vector 154  Blackhole_Network.node[4].udpApp[0]  rcvdPk:vector(packetBytes)  ETV
attr interpolationmode  none
attr source  rcvdPk
attr title  "packets received, vector(packetBytes)"
vector 157  Blackhole_Network.node[4].udpApp[0]  endToEndDelay:vector  ETV
attr interpolationmode  none
attr source  messageAge(rcvdPk)
attr title  "delay, vector"
attr unit  s
vector 367  Blackhole_Network.node[8].wlan[0].mac  "Mac delay AC0"  ETV
vector 13  Blackhole_Network.blackhole[0].wlan[0].radio  lossRate:vector  ETV
attr interpolationmode  backward-sample-hold
attr title  "packet loss rate, vector"
vector 365  Blackhole_Network.node[8].wlan[0].mac  "jitter AC0"  ETV
1	1447	1.083368821397	1
1	1733	1.08891365132	2
1	3819	1.297703493229	3
1	4454	1.338108904084	4
1	4656	1.392025230297	5
1	5265	1.544745910078	6
3	1447	1.083368821397	1
3	1733	1.08891365132	2
3	3819	1.297703493229	3
3	4454	1.338108904084	4
3	4656	1.392025230297	5
3	5265	1.544745910078	6
8	0	0	0
10	0	0	54000000
11	0	0	0
12	0	0	0
12	201	0.963783912574	1
12	201	0.963783912574	1
12	218	0.963845912574	0
12	218	0.963845912574	0
12	542	1.07941399021	1
12	542	1.07941399021	1
12	565	1.07947599021	0
12	565	1.07947599021	0
12	651	1.080847641031	2
12	651	1.080847641031	2
12	665	1.080909641031	0
12	665	1.080909641031	0
12	718	1.080959131521	1
12	718	1.080959131521	1
12	747	1.080993131521	0
12	747	1.080993131521	0
12	783	1.081501131521	1
12	783	1.081501131521	1
12	798	1.081535131521	0
12	798	1.081535131521	0
12	811	1.081545131521	2
12	811	1.081545131521	2
12	824	1.081579131521	0
12	824	1.081579131521	0
12	846	1.081590622011	1
12	846	1.081590622011	1
12	860	1.081632622011	0
12	860	1.081632622011	0
12	876	1.081642622011	2
12	876	1.081642622011	2
12	900	1.081676622011	0
12	900	1.081676622011	0
12	921	1.081929622011	2
12	921	1.081929622011	2
12	934	1.081963622011	0
12	934	1.081963622011	0
12	959	1.081975251993	1
12	959	1.081975251993	1
12	978	1.082009251993	0
12	978	1.082009251993	0
12	989	1.082019251993	2
12	989	1.082019251993	2
12	1002	1.082061251993	0
12	1002	1.082061251993	0
12	1030	1.082072881975	1
12	1030	1.082072881975	1
12	1057	1.082106881975	0
12	1057	1.082106881975	0
12	1075	1.082413881975	1
12	1075	1.082413881975	1
12	1093	1.082447881975	0
12	1093	1.082447881975	0
12	1138	1.082503318455	1
12	1138	1.082503318455	1
12	1156	1.082545318455	0
12	1156	1.082545318455	0
12	1245	1.082878754935	1
12	1245	1.082878754935	1
12	1262	1.082912754935	0
12	1262	1.082912754935	0
12	1314	1.083048191415	1
12	1314	1.083048191415	1
12	1333	1.083082191415	0
12	1333	1.083082191415	0
12	1350	1.083155191415	1
12	1350	1.083155191415	1
12	1369	1.083189191415	0
12	1369	1.083189191415	0
12	1380	1.083199191415	2
12	1380	1.083199191415	2
12	1393	1.083233191415	0
12	1393	1.083233191415	0
12	1418	1.083244821397	1
12	1418	1.083244821397	1
12	1434	1.083358821397	0
12	1434	1.083358821397	0
12	1448	1.083368821397	2
12	1448	1.083368821397	2
12	1467	1.083402821397	0
12	1467	1.083402821397	0
12	1531	1.088423584858	1
12	1531	1.088423584858	1
12	1548	1.088457584858	0
12	1548	1.088457584858	0
12	1600	1.088593021338	1
12	1600	1.088593021338	1
12	1619	1.088627021338	0
12	1619	1.088627021338	0
12	1636	1.088700021338	1
12	1636	1.088700021338	1
12	1655	1.088734021338	0
12	1655	1.088734021338	0
12	1666	1.088744021338	2
12	1666	1.088744021338	2
12	1679	1.088778021338	0
12	1679	1.088778021338	0
12	1704	1.08878965132	1
12	1704	1.08878965132	1
12	1720	1.08890365132	0
12	1720	1.08890365132	0
12	1734	1.08891365132	2
12	1734	1.08891365132	2
12	1753	1.08894765132	0
12	1753	1.08894765132	0
12	1810	1.203519229093	1
12	1810	1.203519229093	1
12	1827	1.203581229093	0
12	1827	1.203581229093	0
12	1857	1.204723262846	1
12	1857	1.204723262846	1
12	1871	1.204785262846	0
12	1871	1.204785262846	0
12	1912	1.205971267338	1
12	1912	1.205971267338	1
12	1929	1.206033267338	0
12	1929	1.206033267338	0
12	1958	1.208351091035	2
12	1958	1.208351091035	2
12	1972	1.208413091035	0
12	1972	1.208413091035	0
12	2022	1.211551007108	1
12	2022	1.211551007108	1
12	2045	1.211613007108	0
12	2045	1.211613007108	0
12	2182	1.220671464826	1
12	2182	1.220671464826	1
12	2206	1.220705464826	0
12	2206	1.220705464826	0
12	2239	1.220719717179	1
12	2239	1.220719717179	1
12	2250	1.220750032832	0
12	2250	1.220750032832	0
12	2265	1.22076046715	1
12	2265	1.22076046715	1
12	2299	1.22087446715	0
12	2299	1.22087446715	0
12	2326	1.22204846715	1
12	2326	1.22204846715	1
12	2344	1.22208246715	0
12	2344	1.22208246715	0
12	2389	1.222137469474	1
12	2389	1.222137469474	1
12	2407	1.222251469474	0
12	2407	1.222251469474	0
12	2801	1.29238769951	1
12	2801	1.29238769951	1
12	2825	1.29244969951	0
12	2825	1.29244969951	0
12	2947	1.295420079871	2
12	2947	1.295420079871	2
12	2961	1.295482079871	0
12	2961	1.295482079871	0
12	3007	1.295530961755	1
12	3007	1.295530961755	1
12	3020	1.295564961755	0
12	3020	1.295564961755	0
12	3038	1.295574961755	2
12	3038	1.295574961755	2
12	3051	1.295608961755	0
12	3051	1.295608961755	0
12	3071	1.295619843639	1
12	3071	1.295619843639	1
12	3084	1.295661843639	0
12	3084	1.295661843639	0
12	3103	1.295671843639	2
12	3103	1.295671843639	2
12	3131	1.295705843639	0
12	3131	1.295705843639	0
12	3154	1.295949843639	2
12	3154	1.295949843639	2
12	3167	1.295983843639	0
12	3167	1.295983843639	0
12	3189	1.295994725523	1
12	3189	1.295994725523	1
12	3202	1.296028725523	0
12	3202	1.296028725523	0
12	3218	1.296038725523	2
12	3218	1.296038725523	2
12	3231	1.296076725523	0
12	3231	1.296076725523	0
12	3255	1.296087607407	1
12	3255	1.296087607407	1
12	3271	1.296121607407	0
12	3271	1.296121607407	0
12	3288	1.296347607407	2
12	3288	1.296347607407	2
12	3301	1.296381607407	0
12	3301	1.296381607407	0
12	3326	1.296393233885	1
12	3326	1.296393233885	1
12	3345	1.296427233885	0
12	3345	1.296427233885	0
12	3356	1.296437233885	2
12	3356	1.296437233885	2
12	3369	1.296479233885	0
12	3369	1.296479233885	0
12	3397	1.296490860363	1
12	3397	1.296490860363	1
12	3424	1.296524860363	0
12	3424	1.296524860363	0
12	3442	1.296669860363	1
12	3442	1.296669860363	1
12	3460	1.296703860363	0
12	3460	1.296703860363	0
12	3506	1.296758529159	1
12	3506	1.296758529159	1
12	3524	1.296800529159	0
12	3524	1.296800529159	0
12	3616	1.297007197955	1
12	3616	1.297007197955	1
12	3632	1.297041197955	0
12	3632	1.297041197955	0
12	3685	1.297175866751	1
12	3685	1.297175866751	1
12	3704	1.297209866751	0
12	3704	1.297209866751	0
12	3722	1.297489866751	1
12	3722	1.297489866751	1
12	3741	1.297523866751	0
12	3741	1.297523866751	0
12	3752	1.297533866751	2
12	3752	1.297533866751	2
12	3765	1.297567866751	0
12	3765	1.297567866751	0
12	3790	1.297579493229	1
12	3790	1.297579493229	1
12	3806	1.297693493229	0
12	3806	1.297693493229	0
12	3820	1.297703493229	2
12	3820	1.297703493229	2
12	3839	1.297737493229	0
12	3839	1.297737493229	0
12	3931	1.313332089817	1
12	3931	1.313332089817	1
12	3954	1.313394089817	0
12	3954	1.313394089817	0
12	4088	1.314427361205	2
12	4088	1.314427361205	2
12	4103	1.314489361205	0
12	4103	1.314489361205	0
12	4251	1.337456839738	1
12	4251	1.337456839738	1
12	4268	1.337490839738	0
12	4268	1.337490839738	0
12	4320	1.337626279352	1
12	4320	1.337626279352	1
12	4339	1.337660279352	0
12	4339	1.337660279352	0
12	4357	1.337895279352	1
12	4357	1.337895279352	1
12	4376	1.337929279352	0
12	4376	1.337929279352	0
12	4387	1.337939279352	2
12	4387	1.337939279352	2
12	4400	1.337973279352	0
12	4400	1.337973279352	0
12	4425	1.337984904084	1
12	4425	1.337984904084	1
12	4441	1.338098904084	0
12	4441	1.338098904084	0
12	4455	1.338108904084	2
12	4455	1.338108904084	2
12	4474	1.338142904084	0
12	4474	1.338142904084	0
12	4564	1.391811744603	1
12	4564	1.391811744603	1
12	4579	1.391845744603	0
12	4579	1.391845744603	0
12	4592	1.391855744603	2
12	4592	1.391855744603	2
12	4605	1.391889744603	0
12	4605	1.391889744603	0
12	4627	1.391901230297	1
12	4627	1.391901230297	1
12	4641	1.392015230297	0
12	4641	1.392015230297	0
12	4657	1.392025230297	2
12	4657	1.392025230297	2
12	4673	1.392059230297	0
12	4673	1.392059230297	0
12	4864	1.470198107839	1
12	4864	1.470198107839	1
12	4882	1.470232107839	0
12	4882	1.470232107839	0
12	4927	1.470287106901	1
12	4927	1.470287106901	1
12	4945	1.470401106901	0
12	4945	1.470401106901	0
12	5062	1.544094618282	1
12	5062	1.544094618282	1
12	5079	1.544128618282	0
12	5079	1.544128618282	0
12	5131	1.54426328882	1
12	5131	1.54426328882	1
12	5150	1.54429728882	0
12	5150	1.54429728882	0
12	5168	1.54453228882	1
12	5168	1.54453228882	1