version 2
run General-0-20210219-18:27:26-2156
attr configname General
attr datetime 20210219-18:27:26
attr experiment General
attr inifile Blackhole.ini
attr iterationvars $mobility=5
attr iterationvars2 "$mobility=5, $repetition=0"
attr measurement $mobility=5
attr mobility 5
attr network Blackhole_Network
attr processid 2156
attr repetition 0
attr replication #0
attr resultdir results
attr runnumber 0
attr seedset 0

vector 8  Blackhole_Network.blackhole[0].wlan[0].mgmt  dataQueueLen:vector  ETV
attr interpolationmode  sample-hold
attr title  "data queue length, vector"
vector 30  Blackhole_Network.originator[0].wlan[0].mgmt  dataQueueLen:vector  ETV
attr interpolationmode  sample-hold
attr title  "data queue length, vector"
vector 51  Blackhole_Network.destination[0].wlan[0].mgmt  dataQueueLen:vector  ETV
attr interpolationmode  sample-hold
attr title  "data queue length, vector"
vector 75  Blackhole_Network.node[0].wlan[0].mgmt  dataQueueLen:vector  ETV
attr interpolationmode  sample-hold
attr title  "data queue length, vector"
vector 99  Blackhole_Network.node[1].wlan[0].mgmt  dataQueueLen:vector  ETV
attr interpolationmode  sample-hold
attr title  "data queue length, vector"
vector 123  Blackhole_Network.node[2].wlan[0].mgmt  dataQueueLen:vector  ETV
attr interpolationmode  sample-hold
attr title  "data queue length, vector"
vector 147  Blackhole_Network.node[3].wlan[0].mgmt  dataQueueLen:vector  ETV
attr interpolationmode  sample-hold
attr title  "data queue length, vector"
vector 171  Blackhole_Network.node[4].wlan[0].mgmt  dataQueueLen:vector  ETV
attr interpolationmode  sample-hold
attr title  "data queue length, vector"
vector 195  Blackhole_Network.node[5].wlan[0].mgmt  dataQueueLen:vector  ETV
attr interpolationmode  sample-hold
attr title  "data queue length, vector"
vector 219  Blackhole_Network.node[6].wlan[0].mgmt  dataQueueLen:vector  ETV
attr interpolationmode  sample-hold
attr title  "data queue length, vector"
vector 243  Blackhole_Network.node[7].wlan[0].mgmt  dataQueueLen:vector  ETV
attr interpolationmode  sample-hold
attr title  "data queue length, vector"
vector 267  Blackhole_Network.node[8].wlan[0].mgmt  dataQueueLen:vector  ETV
attr interpolationmode  sample-hold
attr title  "data queue length, vector"
vector 291  Blackhole_Network.node[9].wlan[0].mgmt  dataQueueLen:vector  ETV
attr interpolationmode  sample-hold
attr title  "data queue length, vector"
vector 298  Blackhole_Network.blackhole[0].wlan[0].mac  RadioState  ETV
attr enum  "IDLE=0, RECV=1, SLEEP=3, TRANSMIT=2"
attr enumname  RadioState
vector 297  Blackhole_Network.blackhole[0].wlan[0].mac  State  ETV
attr enum  "BACKOFF=3, DEFER=1, IDLE=0, RECEIVE=8, WAITACK=4, WAITAIFS=2, WAITCTS=6, WAITMULTICAST=5, WAITSIFS=7"
attr enumname  Ieee80211Mac
vector 304  Blackhole_Network.originator[0].wlan[0].mac  RadioState  ETV
attr enum  "IDLE=0, RECV=1, SLEEP=3, TRANSMIT=2"
attr enumname  RadioState
vector 303  Blackhole_Network.originator[0].wlan[0].mac  State  ETV
attr enum  "BACKOFF=3, DEFER=1, IDLE=0, RECEIVE=8, WAITACK=4, WAITAIFS=2, WAITCTS=6, WAITMULTICAST=5, WAITSIFS=7"
attr enumname  Ieee80211Mac
vector 310  Blackhole_Network.destination[0].wlan[0].mac  RadioState  ETV
attr enum  "IDLE=0, RECV=1, SLEEP=3, TRANSMIT=2"
attr enumname  RadioState
vector 309  Blackhole_Network.destination[0].wlan[0].mac  State  ETV
attr enum  "BACKOFF=3, DEFER=1, IDLE=0, RECEIVE=8, WAITACK=4, WAITAIFS=2, WAITCTS=6, WAITMULTICAST=5, WAITSIFS=7"
attr enumname  Ieee80211Mac
vector 316  Blackhole_Network.node[0].wlan[0].mac  RadioState  ETV
attr enum  "IDLE=0, RECV=1, SLEEP=3, TRANSMIT=2"
attr enumname  RadioState
vector 315  Blackhole_Network.node[0].wlan[0].mac  State  ETV
attr enum  "BACKOFF=3, DEFER=1, IDLE=0, RECEIVE=8, WAITACK=4, WAITAIFS=2, WAITCTS=6, WAITMULTICAST=5, WAITSIFS=7"
attr enumname  Ieee80211Mac
vector 322  Blackhole_Network.node[1].wlan[0].mac  RadioState  ETV
attr enum  "IDLE=0, RECV=1, SLEEP=3, TRANSMIT=2"
attr enumname  RadioState
vector 321  Blackhole_Network.node[1].wlan[0].mac  State  ETV
attr enum  "BACKOFF=3, DEFER=1, IDLE=0, RECEIVE=8, WAITACK=4, WAITAIFS=2, WAITCTS=6, WAITMULTICAST=5, WAITSIFS=7"
attr enumname  Ieee80211Mac
vector 328  Blackhole_Network.node[2].wlan[0].mac  RadioState  ETV
attr enum  "IDLE=0, RECV=1, SLEEP=3, TRANSMIT=2"
attr enumname  RadioState
vector 327  Blackhole_Network.node[2].wlan[0].mac  State  ETV
attr enum  "BACKOFF=3, DEFER=1, IDLE=0, RECEIVE=8, WAITACK=4, WAITAIFS=2, WAITCTS=6, WAITMULTICAST=5, WAITSIFS=7"
attr enumname  Ieee80211Mac
vector 334  Blackhole_Network.node[3].wlan[0].mac  RadioState  ETV
attr enum  "IDLE=0, RECV=1, SLEEP=3, TRANSMIT=2"
attr enumname  RadioState
vector 333  Blackhole_Network.node[3].wlan[0].mac  State  ETV
attr enum  "BACKOFF=3, DEFER=1, IDLE=0, RECEIVE=8, WAITACK=4, WAITAIFS=2, WAITCTS=6, WAITMULTICAST=5, WAITSIFS=7"
attr enumname  Ieee80211Mac
vector 340  Blackhole_Network.node[4].wlan[0].mac  RadioState  ETV
attr enum  "IDLE=0, RECV=1, SLEEP=3, TRANSMIT=2"
attr enumname  RadioState
vector 339  Blackhole_Network.node[4].wlan[0].mac  State  ETV
attr enum  "BACKOFF=3, DEFER=1, IDLE=0, RECEIVE=8, WAITACK=4, WAITAIFS=2, WAITCTS=6, WAITMULTICAST=5, WAITSIFS=7"
attr enumname  Ieee80211Mac
vector 346  Blackhole_Network.node[5].wlan[0].mac  RadioState  ETV
attr enum  "IDLE=0, RECV=1, SLEEP=3, TRANSMIT=2"
attr enumname  RadioState
vector 345  Blackhole_Network.node[5].wlan[0].mac  State  ETV
attr enum  "BACKOFF=3, DEFER=1, IDLE=0, RECEIVE=8, WAITACK=4, WAITAIFS=2, WAITCTS=6, WAITMULTICAST=5, WAITSIFS=7"
attr enumname  Ieee80211Mac
vector 352  Blackhole_Network.node[6].wlan[0].mac  RadioState  ETV
attr enum  "IDLE=0, RECV=1, SLEEP=3, TRANSMIT=2"
attr enumname  RadioState
vector 351  Blackhole_Network.node[6].wlan[0].mac  State  ETV
attr enum  "BACKOFF=3, DEFER=1, IDLE=0, RECEIVE=8, WAITACK=4, WAITAIFS=2, WAITCTS=6, WAITMULTICAST=5, WAITSIFS=7"
attr enumname  Ieee80211Mac
vector 358  Blackhole_Network.node[7].wlan[0].mac  RadioState  ETV
attr enum  "IDLE=0, RECV=1, SLEEP=3, TRANSMIT=2"
attr enumname  RadioState
vector 357  Blackhole_Network.node[7].wlan[0].mac  State  ETV
attr enum  "BACKOFF=3, DEFER=1, IDLE=0, RECEIVE=8, WAITACK=4, WAITAIFS=2, WAITCTS=6, WAITMULTICAST=5, WAITSIFS=7"
attr enumname  Ieee80211Mac
vector 364  Blackhole_Network.node[8].wlan[0].mac  RadioState  ETV
attr enum  "IDLE=0, RECV=1, SLEEP=3, TRANSMIT=2"
attr enumname  RadioState
vector 363  Blackhole_Network.node[8].wlan[0].mac  State  ETV
attr enum  "BACKOFF=3, DEFER=1, IDLE=0, RECEIVE=8, WAITACK=4, WAITAIFS=2, WAITCTS=6, WAITMULTICAST=5, WAITSIFS=7"
attr enumname  Ieee80211Mac
vector 370  Blackhole_Network.node[9].wlan[0].mac  RadioState  ETV
attr enum  "IDLE=0, RECV=1, SLEEP=3, TRANSMIT=2"
attr enumname  RadioState
vector 369  Blackhole_Network.node[9].wlan[0].mac  State  ETV
attr enum  "BACKOFF=3, DEFER=1, IDLE=0, RECEIVE=8, WAITACK=4, WAITAIFS=2, WAITCTS=6, WAITMULTICAST=5, WAITSIFS=7"
attr enumname  Ieee80211Mac
vector 10  Blackhole_Network.blackhole[0].wlan[0].radio  bitrate:vector  ETV
attr interpolationmode  sample-hold
attr title  "tx bitrate, vector"
attr unit  bps
vector 12  Blackhole_Network.blackhole[0].wlan[0].radio  radioState:vector  ETV
attr interpolationmode  sample-hold
attr title  "radio state (enum), vector"
vector 11  Blackhole_Network.blackhole[0].wlan[0].radio  channelNo:vector  ETV
attr interpolationmode  sample-hold
attr title  "channel no, vector"
vector 32  Blackhole_Network.originator[0].wlan[0].radio  bitrate:vector  ETV
attr interpolationmode  sample-hold
attr title  "tx bitrate, vector"
attr unit  bps
vector 34  Blackhole_Network.originator[0].wlan[0].radio  radioState:vector  ETV
attr interpolationmode  sample-hold
attr title  "radio state (enum), vector"
vector 33  Blackhole_Network.originator[0].wlan[0].radio  channelNo:vector  ETV
attr interpolationmode  sample-hold
attr title  "channel no, vector"
vector 53  Blackhole_Network.destination[0].wlan[0].radio  bitrate:vector  ETV
attr interpolationmode  sample-hold
attr title  "tx bitrate, vector"
attr unit  bps
vector 55  Blackhole_Network.destination[0].wlan[0].radio  radioState:vector  ETV
attr interpolationmode  sample-hold
attr title  "radio state (enum), vector"
vector 54  Blackhole_Network.destination[0].wlan[0].radio  channelNo:vector  ETV
attr interpolationmode  sample-hold
attr title  "channel no, vector"
vector 77  Blackhole_Network.node[0].wlan[0].radio  bitrate:vector  ETV
attr interpolationmode  sample-hold
attr title  "tx bitrate, vector"
attr unit  bps
vector 79  Blackhole_Network.node[0].wlan[0].radio  radioState:vector  ETV
attr interpolationmode  sample-hold
attr title  "radio state (enum), vector"
vector 78  Blackhole_Network.node[0].wlan[0].radio  channelNo:vector  ETV
attr interpolationmode  sample-hold
attr title  "channel no, vector"
vector 101  Blackhole_Network.node[1].wlan[0].radio  bitrate:vector  ETV
attr interpolationmode  sample-hold
attr title  "tx bitrate, vector"
attr unit  bps
vector 103  Blackhole_Network.node[1].wlan[0].radio  radioState:vector  ETV
attr interpolationmode  sample-hold
attr title  "radio state (enum), vector"
vector 102  Blackhole_Network.node[1].wlan[0].radio  channelNo:vector  ETV
attr interpolationmode  sample-hold
attr title  "channel no, vector"
vector 125  Blackhole_Network.node[2].wlan[0].radio  bitrate:vector  ETV
attr interpolationmode  sample-hold
attr title  "tx bitrate, vector"
attr unit  bps
vector 127  Blackhole_Network.node[2].wlan[0].radio  radioState:vector  ETV
attr interpolationmode  sample-hold
attr title  "radio state (enum), vector"
vector 126  Blackhole_Network.node[2].wlan[0].radio  channelNo:vector  ETV
attr interpolationmode  sample-hold
attr title  "channel no, vector"
vector 149  Blackhole_Network.node[3].wlan[0].radio  bitrate:vector  ETV
attr interpolationmode  sample-hold
attr title  "tx bitrate, vector"
attr unit  bps
vector 151  Blackhole_Network.node[3].wlan[0].radio  radioState:vector  ETV
attr interpolationmode  sample-hold
attr title  "radio state (enum), vector"
vector 150  Blackhole_Network.node[3].wlan[0].radio  channelNo:vector  ETV
attr interpolationmode  sample-hold
attr title  "channel no, vector"
vector 173  Blackhole_Network.node[4].wlan[0].radio  bitrate:vector  ETV
attr interpolationmode  sample-hold
attr title  "tx bitrate, vector"
attr unit  bps
vector 175  Blackhole_Network.node[4].wlan[0].radio  radioState:vector  ETV
attr interpolationmode  sample-hold
attr title  "radio state (enum), vector"
vector 174  Blackhole_Network.node[4].wlan[0].radio  channelNo:vector  ETV
attr interpolationmode  sample-hold
attr title  "channel no, vector"
vector 197  Blackhole_Network.node[5].wlan[0].radio  bitrate:vector  ETV
attr interpolationmode  sample-hold
attr title  "tx bitrate, vector"
attr unit  bps
vector 199  Blackhole_Network.node[5].wlan[0].radio  radioState:vector  ETV
attr interpolationmode  sample-hold
attr title  "radio state (enum), vector"
vector 198  Blackhole_Network.node[5].wlan[0].radio  channelNo:vector  ETV
attr interpolationmode  sample-hold
attr title  "channel no, vector"
vector 221  Blackhole_Network.node[6].wlan[0].radio  bitrate:vector  ETV
attr interpolationmode  sample-hold
attr title  "tx bitrate, vector"
attr unit  bps
vector 223  Blackhole_Network.node[6].wlan[0].radio  radioState:vector  ETV
attr interpolationmode  sample-hold
attr title  "radio state (enum), vector"
vector 222  Blackhole_Network.node[6].wlan[0].radio  channelNo:vector  ETV
attr interpolationmode  sample-hold
attr title  "channel no, vector"
vector 245  Blackhole_Network.node[7].wlan[0].radio  bitrate:vector  ETV
attr interpolationmode  sample-hold
attr title  "tx bitrate, vector"
attr unit  bps
vector 247  Blackhole_Network.node[7].wlan[0].radio  radioState:vector  ETV
attr interpolationmode  sample-hold
attr title  "radio state (enum), vector"
vector 246  Blackhole_Network.node[7].wlan[0].radio  channelNo:vector  ETV
attr interpolationmode  sample-hold
attr title  "channel no, vector"
vector 269  Blackhole_Network.node[8].wlan[0].radio  bitrate:vector  ETV
attr interpolationmode  sample-hold
attr title  "tx bitrate, vector"
attr unit  bps
vector 271  Blackhole_Network.node[8].wlan[0].radio  radioState:vector  ETV
attr interpolationmode  sample-hold
attr title  "radio state (enum), vector"
vector 270  Blackhole_Network.node[8].wlan[0].radio  channelNo:vector  ETV
attr interpolationmode  sample-hold
attr title  "channel no, vector"
vector 293  Blackhole_Network.node[9].wlan[0].radio  bitrate:vector  ETV
attr interpolationmode  sample-hold
attr title  "tx bitrate, vector"
attr unit  bps
vector 295  Blackhole_Network.node[9].wlan[0].radio  radioState:vector  ETV
attr interpolationmode  sample-hold
attr title  "radio state (enum), vector"
vector 294  Blackhole_Network.node[9].wlan[0].radio  channelNo:vector  ETV
attr interpolationmode  sample-hold
attr title  "channel no, vector"
vector 129  Blackhole_Network.node[3].udpApp[0]  sentPk:vector(packetBytes)  ETV
attr interpolationmode  none
attr source  sentPk
attr title  "packets sent, vector(packetBytes)"
vector 134  Blackhole_Network.node[3].udp  sentPk:vector(packetBytes)  ETV
attr interpolationmode  none
attr source  sentPk
attr title  "packets sent, vector(packetBytes)"
vector 336  Blackhole_Network.node[3].wlan[0].mac  "throughput AC0"  ETV
vector 360  Blackhole_Network.node[7].wlan[0].mac  "throughput AC0"  ETV
vector 306  Blackhole_Network.originator[0].wlan[0].mac  "throughput AC0"  ETV
vector 362  Blackhole_Network.node[7].wlan[0].radio  snirVector  ETV
vector 308  Blackhole_Network.originator[0].wlan[0].radio  snirVector  ETV
vector 201  Blackhole_Network.node[6].udpApp[0]  sentPk:vector(packetBytes)  ETV
attr interpolationmode  none
attr source  sentPk
attr title  "packets sent, vector(packetBytes)"
vector 206  Blackhole_Network.node[6].udp  sentPk:vector(packetBytes)  ETV
attr interpolationmode  none
attr source  sentPk
attr title  "packets sent, vector(packetBytes)"
vector 354  Blackhole_Network.node[6].wlan[0].mac  "throughput AC0"  ETV
vector 312  Blackhole_Network.destination[0].wlan[0].mac  "throughput AC0"  ETV
vector 300  Blackhole_Network.blackhole[0].wlan[0].mac  "throughput AC0"  ETV
vector 314  Blackhole_Network.destination[0].wlan[0].radio  snirVector  ETV
vector 302  Blackhole_Network.blackhole[0].wlan[0].radio  snirVector  ETV
vector 318  Blackhole_Network.node[0].wlan[0].mac  "throughput AC0"  ETV
vector 320  Blackhole_Network.node[0].wlan[0].radio  snirVector  ETV
vector 356  Blackhole_Network.node[6].wlan[0].radio  snirVector  ETV
vector 301  Blackhole_Network.blackhole[0].wlan[0].mac  "Mac delay AC0"  ETV
vector 1  Blackhole_Network.blackhole[0].networkLayer.ip  rcvdPkt:vector  ETV
attr interpolationmode  none
attr title  "Number of packet received, vector"
vector 3  Blackhole_Network.blackhole[0].networkLayer.ip  blacked:vector  ETV
attr interpolationmode  none
attr title  "Number of blackhole drops, vector"
vector 355  Blackhole_Network.node[6].wlan[0].mac  "Mac delay AC0"  ETV
vector 273  Blackhole_Network.node[9].udpApp[0]  sentPk:vector(packetBytes)  ETV
attr interpolationmode  none
attr source  sentPk
attr title  "packets sent, vector(packetBytes)"
vector 278  Blackhole_Network.node[9].udp  sentPk:vector(packetBytes)  ETV
attr interpolationmode  none
attr source  sentPk
attr title  "packets sent, vector(packetBytes)"
vector 372  Blackhole_Network.node[9].wlan[0].mac  "throughput AC0"  ETV
vector 366  Blackhole_Network.node[8].wlan[0].mac  "throughput AC0"  ETV
vector 342  Blackhole_Network.node[4].wlan[0].mac  "throughput AC0"  ETV
vector 368  Blackhole_Network.node[8].wlan[0].radio  snirVector  ETV
vector 344  Blackhole_Network.node[4].wlan[0].radio  snirVector  ETV
vector 81  Blackhole_Network.node[1].udpApp[0]  sentPk:vector(packetBytes)  ETV
attr interpolationmode  none
attr source  sentPk
attr title  "packets sent, vector(packetBytes)"
vector 86  Blackhole_Network.node[1].udp  sentPk:vector(packetBytes)  ETV
attr interpolationmode  none
attr source  sentPk
attr title  "packets sent, vector(packetBytes)"
vector 324  Blackhole_Network.node[1].wlan[0].mac  "throughput AC0"  ETV
vector 348  Blackhole_Network.node[5].wlan[0].mac  "throughput AC0"  ETV
vector 350  Blackhole_Network.node[5].wlan[0].radio  snirVector  ETV
vector 15  Blackhole_Network.originator[0].udpApp[0]  sentPk:vector(packetBytes)  ETV
attr interpolationmode  none
attr source  sentPk
attr title  "packets sent, vector(packetBytes)"
vector 17  Blackhole_Network.originator[0].udp  sentPk:vector(packetBytes)  ETV
attr interpolationmode  none
attr source  sentPk
attr title  "packets sent, vector(packetBytes)"
vector 330  Blackhole_Network.node[2].wlan[0].mac  "throughput AC0"  ETV
vector 332  Blackhole_Network.node[2].wlan[0].radio  snirVector  ETV
vector 338  Blackhole_Network.node[3].wlan[0].radio  snirVector  ETV
vector 105  Blackhole_Network.node[2].udpApp[0]  sentPk:vector(packetBytes)  ETV
attr interpolationmode  none
attr source  sentPk
attr title  "packets sent, vector(packetBytes)"
vector 110  Blackhole_Network.node[2].udp  sentPk:vector(packetBytes)  ETV
attr interpolationmode  none
attr source  sentPk
attr title  "packets sent, vector(packetBytes)"
vector 299  Blackhole_Network.blackhole[0].wlan[0].mac  "jitter AC0"  ETV
vector 353  Blackhole_Network.node[6].wlan[0].mac  "jitter AC0"  ETV
vector 361  Blackhole_Network.node[7].wlan[0].mac  "Mac delay AC0"  ETV
vector 236  Blackhole_Network.node[7].networkLayer.ip  rcvdPkt:vector  ETV
attr interpolationmode  none
attr title  "Number of packet received, vector"
vector 337  Blackhole_Network.node[3].wlan[0].mac  "Mac delay AC0"  ETV
vector 359  Blackhole_Network.node[7].wlan[0].mac  "jitter AC0"  ETV
vector 374  Blackhole_Network.node[9].wlan[0].radio  snirVector  ETV
vector 225  Blackhole_Network.node[7].udpApp[0]  sentPk:vector(packetBytes)  ETV
attr interpolationmode  none
attr source  sentPk
attr title  "packets sent, vector(packetBytes)"
vector 230  Blackhole_Network.node[7].udp  sentPk:vector(packetBytes)  ETV
attr interpolationmode  none
attr source  sentPk
attr title  "packets sent, vector(packetBytes)"
vector 335  Blackhole_Network.node[3].wlan[0].mac  "jitter AC0"  ETV
vector 326  Blackhole_Network.node[1].wlan[0].radio  snirVector  ETV
vector 116  Blackhole_Network.node[2].networkLayer.ip  rcvdPkt:vector  ETV
attr interpolationmode  none
attr title  "Number of packet received, vector"
vector 111  Blackhole_Network.node[2].udp  rcvdPk:vector(packetBytes)  ETV
attr interpolationmode  none
attr source  rcvdPk
attr title  "packets received, vector(packetBytes)"
vector 112  Blackhole_Network.node[2].udp  passedUpPk:vector(count)  ETV
attr interpolationmode  none
attr title  "packets passed up, vector(count)"
vector 106  Blackhole_Network.node[2].udpApp[0]  rcvdPk:vector(packetBytes)  ETV
attr interpolationmode  none
attr source  rcvdPk
attr title  "packets received, vector(packetBytes)"
vector 109  Blackhole_Network.node[2].udpApp[0]  endToEndDelay:vector  ETV
attr interpolationmode  none
attr source  messageAge(rcvdPk)
attr title  "delay, vector"
attr unit  s
vector 307  Blackhole_Network.originator[0].wlan[0].mac  "Mac delay AC0"  ETV
vector 35  Blackhole_Network.originator[0].wlan[0].radio  lossRate:vector  ETV
attr interpolationmode  backward-sample-hold
attr title  "packet loss rate, vector"
vector 331  Blackhole_Network.node[2].wlan[0].mac  "Mac delay AC0"  ETV
vector 248  Blackhole_Network.node[7].wlan[0].radio  lossRate:vector  ETV
attr interpolationmode  backward-sample-hold
attr title  "packet loss rate, vector"
vector 153  Blackhole_Network.node[4].udpApp[0]  sentPk:vector(packetBytes)  ETV
attr interpolationmode  none
attr source  sentPk
attr title  "packets sent, vector(packetBytes)"
vector 158  Blackhole_Network.node[4].udp  sentPk:vector(packetBytes)  ETV
attr interpolationmode  none
attr source  sentPk
attr title  "packets sent, vector(packetBytes)"
vector 305  Blackhole_Network.originator[0].wlan[0].mac  "jitter AC0"  ETV
vector 329  Blackhole_Network.node[2].wlan[0].mac  "jitter AC0"  ETV
vector 128  Blackhole_Network.node[2].wlan[0].radio  lossRate:vector  ETV
attr interpolationmode  backward-sample-hold
attr title  "packet loss rate, vector"
vector 152  Blackhole_Network.node[3].wlan[0].radio  lossRate:vector  ETV
attr interpolationmode  backward-sample-hold
attr title  "packet loss rate, vector"
vector 13  Blackhole_Network.blackhole[0].wlan[0].radio  lossRate:vector  ETV
attr interpolationmode  backward-sample-hold
attr title  "packet loss rate, vector"
vector 177  Blackhole_Network.node[5].udpApp[0]  sentPk:vector(packetBytes)  ETV
attr interpolationmode  none
attr source  sentPk
attr title  "packets sent, vector(packetBytes)"
vector 182  Blackhole_Network.node[5].udp  sentPk:vector(packetBytes)  ETV
attr interpolationmode  none
attr source  sentPk
attr title  "packets sent, vector(packetBytes)"
vector 57  Blackhole_Network.node[0].udpApp[0]  sentPk:vector(packetBytes)  ETV
attr interpolationmode  none
attr source  sentPk
attr title  "packets sent, vector(packetBytes)"
vector 62  Blackhole_Network.node[0].udp  sentPk:vector(packetBytes)  ETV
attr interpolationmode  none
attr source  sentPk
attr title  "packets sent, vector(packetBytes)"
vector 319  Blackhole_Network.node[0].wlan[0].mac  "Mac delay AC0"  ETV
vector 249  Blackhole_Network.node[8].udpApp[0]  sentPk:vector(packetBytes)  ETV
attr interpolationmode  none
attr source  sentPk
attr title  "packets sent, vector(packetBytes)"
vector 254  Blackhole_Network.node[8].udp  sentPk:vector(packetBytes)  ETV
attr interpolationmode  none
attr source  sentPk
attr title  "packets sent, vector(packetBytes)"
vector 164  Blackhole_Network.node[4].networkLayer.ip  rcvdPkt:vector  ETV
attr interpolationmode  none
attr title  "Number of packet received, vector"
vector 159  Blackhole_Network.node[4].udp  rcvdPk:vector(packetBytes)  ETV
attr interpolationmode  none
attr source  rcvdPk
attr title  "packets received, vector(packetBytes)"
vector 160  Blackhole_Network.node[4].udp  passedUpPk:vector(count)  ETV
attr interpolationmode  none
attr title  "packets passed up, vector(count)"
vector 154  Blackhole_Network.node[4].udpApp[0]  rcvdPk:vector(packetBytes)  ETV
attr interpolationmode  none
attr source  rcvdPk
attr title  "packets received, vector(packetBytes)"
vector 157  Blackhole_Network.node[4].udpApp[0]  endToEndDelay:vector  ETV
attr interpolationmode  none
attr source  messageAge(rcvdPk)
attr title  "delay, vector"
attr unit  s
vector 367  Blackhole_Network.node[8].wlan[0].mac  "Mac delay AC0"  ETV
vector 317  Blackhole_Network.node[0].wlan[0].mac  "jitter AC0"  ETV
vector 56  Blackhole_Network.destination[0].wlan[0].radio  lossRate:vector  ETV
attr interpolationmode  backward-sample-hold
attr title  "packet loss rate, vector"
vector 365  Blackhole_Network.node[8].wlan[0].mac  "jitter AC0"  ETV
vector 80  Blackhole_Network.node[0].wlan[0].radio  lossRate:vector  ETV
attr interpolationmode  backward-sample-hold
attr title  "packet loss rate, vector"
vector 224  Blackhole_Network.node[6].wlan[0].radio  lossRate:vector  ETV
attr interpolationmode  backward-sample-hold
attr title  "packet loss rate, vector"
vector 200  Blackhole_Network.node[5].wlan[0].radio  lossRate:vector  ETV
attr interpolationmode  backward-sample-hold
attr title  "packet loss rate, vector"
vector 296  Blackhole_Network.node[9].wlan[0].radio  lossRate:vector  ETV
attr interpolationmode  backward-sample-hold
attr title  "packet loss rate, vector"
vector 176  Blackhole_Network.node[4].wlan[0].radio  lossRate:vector  ETV
attr interpolationmode  backward-sample-hold
attr title  "packet loss rate, vector"
vector 272  Blackhole_Network.node[8].wlan[0].radio  lossRate:vector  ETV
attr interpolationmode  backward-sample-hold
attr title  "packet loss rate, vector"
1	479	0.964393434816	1
1	1648	1.086212828462	2
1	1933	1.08897665132	3
1	2101	1.211941336711	4
1	3540	1.29150305836	5
1	4297	1.311494136286	6
1	4623	1.318879005693	7
1	4970	1.339500844301	8
1	5362	1.394604486035	9
1	5654	1.462014509642	10
1	6104	1.546120828458	11
1	6389	1.569003618188	12
1	6931	1.590206868169	13
1	7851	1.64250167651	14
1	8145	1.71205381707	15
1	8594	1.819063959197	16
1	8882	1.840228454466	17
1	9032	1.89337694246	18
1	9324	1.963020684067	19
1	10291	2.046907970083	20
1	10578	2.068633474862	21
1	10866	2.090592690381	22
1	11029	2.144171490082	23
1	11467	2.213012646461	24
1	11915	2.318364616999	25
1	12206	2.34103632329	26
1	12354	2.394941900421	27
1	12646	2.462496860408	28
1	13347	2.547688028374	29
1	13632	2.567739847406	30
1	14173	2.590212169768	31
1	14334	2.644632905631	32
1	14626	2.712431121033	33
1	15074	2.817358818243	34
1	15365	2.839547962168	35
1	15514	2.895567011535	36
1	16080	2.962094039428	37
1	16542	3.048460530245	38
1	16827	3.066476139428	39
1	17115	3.088539153059	40
1	17278	3.145213736815	41
1	17570	3.211855252014	42
1	18523	3.31652511824	43
1	18814	3.339282212622	44
1	18962	3.396202199345	45
1	19254	3.461862165139	46
3	479	0.964393434816	1
3	1648	1.086212828462	2
3	1933	1.08897665132	3
3	2101	1.211941336711	4
3	3540	1.29150305836	5
3	4297	1.311494136286	6
3	4623	1.318879005693	7
3	4970	1.339500844301	8
3	5362	1.394604486035	9
3	5654	1.462014509642	10
3	6104	1.546120828458	11
3	6389	1.569003618188	12
3	6931	1.590206868169	13
3	7851	1.64250167651	14
3	8145	1.71205381707	15
3	8594	1.819063959197	16
3	8882	1.840228454466	17
3	9032	1.89337694246	18
3	9324	1.963020684067	19
3	10291	2.046907970083	20
3	10578	2.068633474862	21
3	10866	2.090592690381	22
3	11029	2.144171490082	23
3	11467	2.213012646461	24
3	11915	2.318364616999	25
3	12206	2.34103632329	26
3	12354	2.394941900421	27
3	12646	2.462496860408	28
3	13347	2.547688028374	29
3	13632	2.567739847406	30
3	14173	2.590212169768	31
3	14334	2.644632905631	32
3	14626	2.712431121033	33
3	15074	2.817358818243	34
3	15365	2.839547962168	35
3	15514	2.895567011535	36
3	16080	2.962094039428	37
3	16542	3.048460530245	38
3	16827	3.066476139428	39
3	17115	3.088539153059	40
3	17278	3.145213736815	41
3	17570	3.211855252014	42
3	18523	3.31652511824	43
3	18814	3.339282212622	44
3	18962	3.396202199345	45
3	19254	3.461862165139	46
8	0	0	0
10	0	0	54000000
11	0	0	0
12	0	0	0
12	201	0.963783912574	1
12	201	0.963783912574	1
12	218	0.963845912574	0
12	218	0.963845912574	0
12	246	0.963893912574	2
12	246	0.963893912574	2
12	259	0.963927912574	0
12	259	0.963927912574	0
12	282	0.963939419988	1
12	282	0.963939419988	1
12	296	0.963973419988	0
12	296	0.963973419988	0
12	309	0.963983419988	2
12	309	0.963983419988	2
12	322	0.964025419988	0
12	322	0.964025419988	0
12	348	0.964036927402	1
12	348	0.964036927402	1
12	370	0.964070927402	0
12	370	0.964070927402	0
12	387	0.964179927402	1
12	387	0.964179927402	1
12	402	0.964213927402	0
12	402	0.964213927402	0
12	415	0.964223927402	2
12	415	0.964223927402	2
12	428	0.964257927402	0
12	428	0.964257927402	0
12	450	0.964269434816	1
12	450	0.964269434816	1
12	464	0.964383434816	0
12	464	0.964383434816	0
12	480	0.964393434816	2
12	480	0.964393434816	2
12	496	0.964427434816	0
12	496	0.964427434816	0
12	919	1.084453369112	1
12	919	1.084453369112	1
12	942	1.084515369112	0
12	942	1.084515369112	0
12	974	1.084563369112	2
12	974	1.084563369112	2
12	987	1.084597369112	0
12	987	1.084597369112	0
12	1012	1.084608999094	1
12	1012	1.084608999094	1
12	1031	1.084642999094	0
12	1031	1.084642999094	0
12	1042	1.084652999094	2
12	1042	1.084652999094	2
12	1055	1.084694999094	0
12	1055	1.084694999094	0
12	1084	1.084706629076	1
12	1084	1.084706629076	1
12	1116	1.084740629076	0
12	1116	1.084740629076	0
12	1134	1.084867629076	1
12	1134	1.084867629076	1
12	1153	1.084901629076	0
12	1153	1.084901629076	0
12	1164	1.084911629076	2
12	1164	1.084911629076	2
12	1177	1.084945629076	0
12	1177	1.084945629076	0
12	1202	1.084957259058	1
12	1202	1.084957259058	1
12	1218	1.084995259058	0
12	1218	1.084995259058	0
12	1232	1.085005259058	2
12	1232	1.085005259058	2
12	1253	1.085039259058	0
12	1253	1.085039259058	0
12	1276	1.08506888904	1
12	1276	1.08506888904	1
12	1294	1.08510288904	0
12	1294	1.08510288904	0
12	1339	1.08515832552	1
12	1339	1.08515832552	1
12	1357	1.08520032552	0
12	1357	1.08520032552	0
12	1445	1.085506762	1
12	1445	1.085506762	1
12	1462	1.085540762	0
12	1462	1.085540762	0
12	1514	1.08567619848	1
12	1514	1.08567619848	1
12	1533	1.08571019848	0
12	1533	1.08571019848	0
12	1551	1.08599919848	1
12	1551	1.08599919848	1
12	1570	1.08603319848	0
12	1570	1.08603319848	0
12	1581	1.08604319848	2
12	1581	1.08604319848	2
12	1594	1.08607719848	0
12	1594	1.08607719848	0
12	1619	1.086088828462	1
12	1619	1.086088828462	1
12	1635	1.086202828462	0
12	1635	1.086202828462	0
12	1649	1.086212828462	2
12	1649	1.086212828462	2
12	1668	1.086246828462	0
12	1668	1.086246828462	0
12	1730	1.088423584858	1
12	1730	1.088423584858	1
12	1747	1.088457584858	0
12	1747	1.088457584858	0
12	1799	1.088593021338	1
12	1799	1.088593021338	1
12	1818	1.088627021338	0
12	1818	1.088627021338	0
12	1836	1.088763021338	1
12	1836	1.088763021338	1
12	1855	1.088797021338	0
12	1855	1.088797021338	0
12	1866	1.088807021338	2
12	1866	1.088807021338	2
12	1879	1.088841021338	0
12	1879	1.088841021338	0
12	1904	1.08885265132	1
12	1904	1.08885265132	1
12	1920	1.08896665132	0
12	1920	1.08896665132	0
12	1934	1.08897665132	2
12	1934	1.08897665132	2
12	1953	1.08901065132	0
12	1953	1.08901065132	0
12	2009	1.211727814793	1
12	2009	1.211727814793	1
12	2024	1.211761814793	0
12	2024	1.211761814793	0
12	2037	1.211771814793	2
12	2037	1.211771814793	2
12	2050	1.211805814793	0
12	2050	1.211805814793	0
12	2072	1.211817336711	1
12	2072	1.211817336711	1
12	2086	1.211931336711	0
12	2086	1.211931336711	0
12	2102	1.211941336711	2
12	2102	1.211941336711	2
12	2118	1.211975336711	0
12	2118	1.211975336711	0
12	2296	1.220671464826	1
12	2296	1.220671464826	1
12	2320	1.220705464826	0
12	2320	1.220705464826	0
12	2352	1.220721944771	1
12	2352	1.220721944771	1
12	2364	1.220750032832	0
12	2364	1.220750032832	0
12	2379	1.22076046715	1
12	2379	1.22076046715	1
12	2419	1.22087446715	0