file 14387 1613863322                                           
version 2
run General-0-20210220-00:08:46-16712
attr configname General
attr datetime 20210220-00:08:46
attr experiment General
attr inifile Blackhole.ini
attr iterationvars $mobility=5
attr iterationvars2 "$mobility=5, $repetition=0"
attr measurement $mobility=5
attr mobility 5
attr network Blackhole_Network
attr processid 16712
attr repetition 0
attr replication #0
attr resultdir results
attr runnumber 0
attr seedset 0
vector 8  Blackhole_Network.blackhole[0].wlan[0].mgmt  dataQueueLen:vector  ETV
attr interpolationmode sample-hold
attr title "data queue length, vector"
8	13170 9 0 0 0 0 1 0 0 0 0
vector 30  Blackhole_Network.originator[0].wlan[0].mgmt  dataQueueLen:vector  ETV
attr interpolationmode sample-hold
attr title "data queue length, vector"
30	13216 10 0 0 0 0 1 0 0 0 0
vector 51  Blackhole_Network.destination[0].wlan[0].mgmt  dataQueueLen:vector  ETV
attr interpolationmode sample-hold
attr title "data queue length, vector"
51	13263 10 0 0 0 0 1 0 0 0 0
vector 75  Blackhole_Network.node[0].wlan[0].mgmt  dataQueueLen:vector  ETV
attr interpolationmode sample-hold
attr title "data queue length, vector"
75	13310 10 0 0 0 0 1 0 0 0 0
vector 99  Blackhole_Network.node[1].wlan[0].mgmt  dataQueueLen:vector  ETV
attr interpolationmode sample-hold
attr title "data queue length, vector"
99	13357 10 0 0 0 0 1 0 0 0 0
vector 123  Blackhole_Network.node[2].wlan[0].mgmt  dataQueueLen:vector  ETV
attr interpolationmode sample-hold
attr title "data queue length, vector"
123	13407 11 0 0 0 0 1 0 0 0 0
vector 147  Blackhole_Network.node[3].wlan[0].mgmt  dataQueueLen:vector  ETV
attr interpolationmode sample-hold
attr title "data queue length, vector"
147	13458 11 0 0 0 0 1 0 0 0 0
vector 171  Blackhole_Network.node[4].wlan[0].mgmt  dataQueueLen:vector  ETV
attr interpolationmode sample-hold
attr title "data queue length, vector"
171	13509 11 0 0 0 0 1 0 0 0 0
vector 195  Blackhole_Network.node[5].wlan[0].mgmt  dataQueueLen:vector  ETV
attr interpolationmode sample-hold
attr title "data queue length, vector"
195	13560 11 0 0 0 0 1 0 0 0 0
vector 219  Blackhole_Network.node[6].wlan[0].mgmt  dataQueueLen:vector  ETV
attr interpolationmode sample-hold
attr title "data queue length, vector"
219	13611 11 0 0 0 0 1 0 0 0 0
vector 243  Blackhole_Network.node[7].wlan[0].mgmt  dataQueueLen:vector  ETV
attr interpolationmode sample-hold
attr title "data queue length, vector"
243	13662 11 0 0 0 0 1 0 0 0 0
vector 267  Blackhole_Network.node[8].wlan[0].mgmt  dataQueueLen:vector  ETV
attr interpolationmode sample-hold
attr title "data queue length, vector"
267	13713 11 0 0 0 0 1 0 0 0 0
vector 291  Blackhole_Network.node[9].wlan[0].mgmt  dataQueueLen:vector  ETV
attr interpolationmode sample-hold
attr title "data queue length, vector"
291	13764 11 0 0 0 0 1 0 0 0 0
vector 298  Blackhole_Network.blackhole[0].wlan[0].mac  RadioState  ETV
attr enum "IDLE=0, RECV=1, SLEEP=3, TRANSMIT=2"
attr enumname RadioState
298	13837 22 0 0 0 0 2 0 0 0 0
vector 297  Blackhole_Network.blackhole[0].wlan[0].mac  State  ETV
attr enum "BACKOFF=3, DEFER=1, IDLE=0, RECEIVE=8, WAITACK=4, WAITAIFS=2, WAITCTS=6, WAITMULTICAST=5, WAITSIFS=7"
attr enumname Ieee80211Mac
297	13815 22 0 0 0 0 2 0 0 0 0
vector 304  Blackhole_Network.originator[0].wlan[0].mac  RadioState  ETV
attr enum "IDLE=0, RECV=1, SLEEP=3, TRANSMIT=2"
attr enumname RadioState
304	13881 22 0 0 0 0 2 0 0 0 0
vector 303  Blackhole_Network.originator[0].wlan[0].mac  State  ETV
attr enum "BACKOFF=3, DEFER=1, IDLE=0, RECEIVE=8, WAITACK=4, WAITAIFS=2, WAITCTS=6, WAITMULTICAST=5, WAITSIFS=7"
attr enumname Ieee80211Mac
303	13859 22 0 0 0 0 2 0 0 0 0
vector 310  Blackhole_Network.destination[0].wlan[0].mac  RadioState  ETV
attr enum "IDLE=0, RECV=1, SLEEP=3, TRANSMIT=2"
attr enumname RadioState
310	13925 22 0 0 0 0 2 0 0 0 0
vector 309  Blackhole_Network.destination[0].wlan[0].mac  State  ETV
attr enum "BACKOFF=3, DEFER=1, IDLE=0, RECEIVE=8, WAITACK=4, WAITAIFS=2, WAITCTS=6, WAITMULTICAST=5, WAITSIFS=7"
attr enumname Ieee80211Mac
309	13903 22 0 0 0 0 2 0 0 0 0
vector 316  Blackhole_Network.node[0].wlan[0].mac  RadioState  ETV
attr enum "IDLE=0, RECV=1, SLEEP=3, TRANSMIT=2"
attr enumname RadioState
316	13969 22 0 0 0 0 2 0 0 0 0
vector 315  Blackhole_Network.node[0].wlan[0].mac  State  ETV
attr enum "BACKOFF=3, DEFER=1, IDLE=0, RECEIVE=8, WAITACK=4, WAITAIFS=2, WAITCTS=6, WAITMULTICAST=5, WAITSIFS=7"
attr enumname Ieee80211Mac
315	13947 22 0 0 0 0 2 0 0 0 0
vector 322  Blackhole_Network.node[1].wlan[0].mac  RadioState  ETV
attr enum "IDLE=0, RECV=1, SLEEP=3, TRANSMIT=2"
attr enumname RadioState
322	14013 22 0 0 0 0 2 0 0 0 0
vector 321  Blackhole_Network.node[1].wlan[0].mac  State  ETV
attr enum "BACKOFF=3, DEFER=1, IDLE=0, RECEIVE=8, WAITACK=4, WAITAIFS=2, WAITCTS=6, WAITMULTICAST=5, WAITSIFS=7"
attr enumname Ieee80211Mac
321	13991 22 0 0 0 0 2 0 0 0 0
vector 328  Blackhole_Network.node[2].wlan[0].mac  RadioState  ETV
attr enum "IDLE=0, RECV=1, SLEEP=3, TRANSMIT=2"
attr enumname RadioState
328	14057 22 0 0 0 0 2 0 0 0 0
vector 327  Blackhole_Network.node[2].wlan[0].mac  State  ETV
attr enum "BACKOFF=3, DEFER=1, IDLE=0, RECEIVE=8, WAITACK=4, WAITAIFS=2, WAITCTS=6, WAITMULTICAST=5, WAITSIFS=7"
attr enumname Ieee80211Mac
327	14035 22 0 0 0 0 2 0 0 0 0
vector 334  Blackhole_Network.node[3].wlan[0].mac  RadioState  ETV
attr enum "IDLE=0, RECV=1, SLEEP=3, TRANSMIT=2"
attr enumname RadioState
334	14101 22 0 0 0 0 2 0 0 0 0
vector 333  Blackhole_Network.node[3].wlan[0].mac  State  ETV
attr enum "BACKOFF=3, DEFER=1, IDLE=0, RECEIVE=8, WAITACK=4, WAITAIFS=2, WAITCTS=6, WAITMULTICAST=5, WAITSIFS=7"
attr enumname Ieee80211Mac
333	14079 22 0 0 0 0 2 0 0 0 0
vector 340  Blackhole_Network.node[4].wlan[0].mac  RadioState  ETV
attr enum "IDLE=0, RECV=1, SLEEP=3, TRANSMIT=2"
attr enumname RadioState
340	14145 22 0 0 0 0 2 0 0 0 0
vector 339  Blackhole_Network.node[4].wlan[0].mac  State  ETV
attr enum "BACKOFF=3, DEFER=1, IDLE=0, RECEIVE=8, WAITACK=4, WAITAIFS=2, WAITCTS=6, WAITMULTICAST=5, WAITSIFS=7"
attr enumname Ieee80211Mac
339	14123 22 0 0 0 0 2 0 0 0 0
vector 346  Blackhole_Network.node[5].wlan[0].mac  RadioState  ETV
attr enum "IDLE=0, RECV=1, SLEEP=3, TRANSMIT=2"
attr enumname RadioState
346	14189 22 0 0 0 0 2 0 0 0 0
vector 345  Blackhole_Network.node[5].wlan[0].mac  State  ETV
attr enum "BACKOFF=3, DEFER=1, IDLE=0, RECEIVE=8, WAITACK=4, WAITAIFS=2, WAITCTS=6, WAITMULTICAST=5, WAITSIFS=7"
attr enumname Ieee80211Mac
345	14167 22 0 0 0 0 2 0 0 0 0
vector 352  Blackhole_Network.node[6].wlan[0].mac  RadioState  ETV
attr enum "IDLE=0, RECV=1, SLEEP=3, TRANSMIT=2"
attr enumname RadioState
352	14233 22 0 0 0 0 2 0 0 0 0
vector 351  Blackhole_Network.node[6].wlan[0].mac  State  ETV
attr enum "BACKOFF=3, DEFER=1, IDLE=0, RECEIVE=8, WAITACK=4, WAITAIFS=2, WAITCTS=6, WAITMULTICAST=5, WAITSIFS=7"
attr enumname Ieee80211Mac
351	14211 22 0 0 0 0 2 0 0 0 0
vector 358  Blackhole_Network.node[7].wlan[0].mac  RadioState  ETV
attr enum "IDLE=0, RECV=1, SLEEP=3, TRANSMIT=2"
attr enumname RadioState
358	14277 22 0 0 0 0 2 0 0 0 0
vector 357  Blackhole_Network.node[7].wlan[0].mac  State  ETV
attr enum "BACKOFF=3, DEFER=1, IDLE=0, RECEIVE=8, WAITACK=4, WAITAIFS=2, WAITCTS=6, WAITMULTICAST=5, WAITSIFS=7"
attr enumname Ieee80211Mac
357	14255 22 0 0 0 0 2 0 0 0 0
vector 364  Blackhole_Network.node[8].wlan[0].mac  RadioState  ETV
attr enum "IDLE=0, RECV=1, SLEEP=3, TRANSMIT=2"
attr enumname RadioState
364	14321 22 0 0 0 0 2 0 0 0 0
vector 363  Blackhole_Network.node[8].wlan[0].mac  State  ETV
attr enum "BACKOFF=3, DEFER=1, IDLE=0, RECEIVE=8, WAITACK=4, WAITAIFS=2, WAITCTS=6, WAITMULTICAST=5, WAITSIFS=7"
attr enumname Ieee80211Mac
363	14299 22 0 0 0 0 2 0 0 0 0
vector 370  Blackhole_Network.node[9].wlan[0].mac  RadioState  ETV
attr enum "IDLE=0, RECV=1, SLEEP=3, TRANSMIT=2"
attr enumname RadioState
370	14365 22 0 0 0 0 2 0 0 0 0
vector 369  Blackhole_Network.node[9].wlan[0].mac  State  ETV
attr enum "BACKOFF=3, DEFER=1, IDLE=0, RECEIVE=8, WAITACK=4, WAITAIFS=2, WAITCTS=6, WAITMULTICAST=5, WAITSIFS=7"
attr enumname Ieee80211Mac
369	14343 22 0 0 0 0 2 0 0 0 0
vector 10  Blackhole_Network.blackhole[0].wlan[0].radio  bitrate:vector  ETV
attr interpolationmode sample-hold
attr title "tx bitrate, vector"
attr unit bps
10	13179 17 0 0 0 0 1 54000000 54000000 54000000 2.916e+015
vector 12  Blackhole_Network.blackhole[0].wlan[0].radio  radioState:vector  ETV
attr interpolationmode sample-hold
attr title "radio state (enum), vector"
12	13206 10 0 0 0 0 1 0 0 0 0
vector 11  Blackhole_Network.blackhole[0].wlan[0].radio  channelNo:vector  ETV
attr interpolationmode sample-hold
attr title "channel no, vector"
11	13196 10 0 0 0 0 1 0 0 0 0
vector 32  Blackhole_Network.originator[0].wlan[0].radio  bitrate:vector  ETV
attr interpolationmode sample-hold
attr title "tx bitrate, vector"
attr unit bps
32	13226 17 0 0 0 0 1 54000000 54000000 54000000 2.916e+015
vector 34  Blackhole_Network.originator[0].wlan[0].radio  radioState:vector  ETV
attr interpolationmode sample-hold
attr title "radio state (enum), vector"
34	13253 10 0 0 0 0 1 0 0 0 0
vector 33  Blackhole_Network.originator[0].wlan[0].radio  channelNo:vector  ETV
attr interpolationmode sample-hold
attr title "channel no, vector"
33	13243 10 0 0 0 0 1 0 0 0 0
vector 53  Blackhole_Network.destination[0].wlan[0].radio  bitrate:vector  ETV
attr interpolationmode sample-hold
attr title "tx bitrate, vector"
attr unit bps
53	13273 17 0 0 0 0 1 54000000 54000000 54000000 2.916e+015
vector 55  Blackhole_Network.destination[0].wlan[0].radio  radioState:vector  ETV
attr interpolationmode sample-hold
attr title "radio state (enum), vector"
55	13300 10 0 0 0 0 1 0 0 0 0
vector 54  Blackhole_Network.destination[0].wlan[0].radio  channelNo:vector  ETV
attr interpolationmode sample-hold
attr title "channel no, vector"
54	13290 10 0 0 0 0 1 0 0 0 0
vector 77  Blackhole_Network.node[0].wlan[0].radio  bitrate:vector  ETV
attr interpolationmode sample-hold
attr title "tx bitrate, vector"
attr unit bps
77	13320 17 0 0 0 0 1 54000000 54000000 54000000 2.916e+015
vector 79  Blackhole_Network.node[0].wlan[0].radio  radioState:vector  ETV
attr interpolationmode sample-hold
attr title "radio state (enum), vector"
79	13347 10 0 0 0 0 1 0 0 0 0
vector 78  Blackhole_Network.node[0].wlan[0].radio  channelNo:vector  ETV
attr interpolationmode sample-hold
attr title "channel no, vector"
78	13337 10 0 0 0 0 1 0 0 0 0
vector 101  Blackhole_Network.node[1].wlan[0].radio  bitrate:vector  ETV
attr interpolationmode sample-hold
attr title "tx bitrate, vector"
attr unit bps
101	13367 18 0 0 0 0 1 54000000 54000000 54000000 2.916e+015
vector 103  Blackhole_Network.node[1].wlan[0].radio  radioState:vector  ETV
attr interpolationmode sample-hold
attr title "radio state (enum), vector"
103	13396 11 0 0 0 0 1 0 0 0 0
vector 102  Blackhole_Network.node[1].wlan[0].radio  channelNo:vector  ETV
attr interpolationmode sample-hold
attr title "channel no, vector"
102	13385 11 0 0 0 0 1 0 0 0 0
vector 125  Blackhole_Network.node[2].wlan[0].radio  bitrate:vector  ETV
attr interpolationmode sample-hold
attr title "tx bitrate, vector"
attr unit bps
125	13418 18 0 0 0 0 1 54000000 54000000 54000000 2.916e+015
vector 127  Blackhole_Network.node[2].wlan[0].radio  radioState:vector  ETV
attr interpolationmode sample-hold
attr title "radio state (enum), vector"
127	13447 11 0 0 0 0 1 0 0 0 0
vector 126  Blackhole_Network.node[2].wlan[0].radio  channelNo:vector  ETV
attr interpolationmode sample-hold
attr title "channel no, vector"
126	13436 11 0 0 0 0 1 0 0 0 0
vector 149  Blackhole_Network.node[3].wlan[0].radio  bitrate:vector  ETV
attr interpolationmode sample-hold
attr title "tx bitrate, vector"
attr unit bps
149	13469 18 0 0 0 0 1 54000000 54000000 54000000 2.916e+015
vector 151  Blackhole_Network.node[3].wlan[0].radio  radioState:vector  ETV
attr interpolationmode sample-hold
attr title "radio state (enum), vector"
151	13498 11 0 0 0 0 1 0 0 0 0
vector 150  Blackhole_Network.node[3].wlan[0].radio  channelNo:vector  ETV
attr interpolationmode sample-hold
attr title "channel no, vector"
150	13487 11 0 0 0 0 1 0 0 0 0
vector 173  Blackhole_Network.node[4].wlan[0].radio  bitrate:vector  ETV
attr interpolationmode sample-hold
attr title "tx bitrate, vector"
attr unit bps
173	13520 18 0 0 0 0 1 54000000 54000000 54000000 2.916e+015
vector 175  Blackhole_Network.node[4].wlan[0].radio  radioState:vector  ETV
attr interpolationmode sample-hold
attr title "radio state (enum), vector"
175	13549 11 0 0 0 0 1 0 0 0 0
vector 174  Blackhole_Network.node[4].wlan[0].radio  channelNo:vector  ETV
attr interpolationmode sample-hold
attr title "channel no, vector"
174	13538 11 0 0 0 0 1 0 0 0 0
vector 197  Blackhole_Network.node[5].wlan[0].radio  bitrate:vector  ETV
attr interpolationmode sample-hold
attr title "tx bitrate, vector"
attr unit bps
197	13571 18 0 0 0 0 1 54000000 54000000 54000000 2.916e+015
vector 199  Blackhole_Network.node[5].wlan[0].radio  radioState:vector  ETV
attr interpolationmode sample-hold
attr title "radio state (enum), vector"
199	13600 11 0 0 0 0 1 0 0 0 0
vector 198  Blackhole_Network.node[5].wlan[0].radio  channelNo:vector  ETV
attr interpolationmode sample-hold
attr title "channel no, vector"
198	13589 11 0 0 0 0 1 0 0 0 0
vector 221  Blackhole_Network.node[6].wlan[0].radio  bitrate:vector  ETV
attr interpolationmode sample-hold
attr title "tx bitrate, vector"
attr unit bps
221	13622 18 0 0 0 0 1 54000000 54000000 54000000 2.916e+015
vector 223  Blackhole_Network.node[6].wlan[0].radio  radioState:vector  ETV
attr interpolationmode sample-hold
attr title "radio state (enum), vector"
223	13651 11 0 0 0 0 1 0 0 0 0
vector 222  Blackhole_Network.node[6].wlan[0].radio  channelNo:vector  ETV
attr interpolationmode sample-hold
attr title "channel no, vector"
222	13640 11 0 0 0 0 1 0 0 0 0
vector 245  Blackhole_Network.node[7].wlan[0].radio  bitrate:vector  ETV
attr interpolationmode sample-hold
attr title "tx bitrate, vector"
attr unit bps
245	13673 18 0 0 0 0 1 54000000 54000000 54000000 2.916e+015
vector 247  Blackhole_Network.node[7].wlan[0].radio  radioState:vector  ETV
attr interpolationmode sample-hold
attr title "radio state (enum), vector"
247	13702 11 0 0 0 0 1 0 0 0 0
vector 246  Blackhole_Network.node[7].wlan[0].radio  channelNo:vector  ETV
attr interpolationmode sample-hold
attr title "channel no, vector"
246	13691 11 0 0 0 0 1 0 0 0 0
vector 269  Blackhole_Network.node[8].wlan[0].radio  bitrate:vector  ETV
attr interpolationmode sample-hold
attr title "tx bitrate, vector"
attr unit bps
269	13724 18 0 0 0 0 1 54000000 54000000 54000000 2.916e+015
vector 271  Blackhole_Network.node[8].wlan[0].radio  radioState:vector  ETV
attr interpolationmode sample-hold
attr title "radio state (enum), vector"
271	13753 11 0 0 0 0 1 0 0 0 0
vector 270  Blackhole_Network.node[8].wlan[0].radio  channelNo:vector  ETV
attr interpolationmode sample-hold
attr title "channel no, vector"
270	13742 11 0 0 0 0 1 0 0 0 0
vector 293  Blackhole_Network.node[9].wlan[0].radio  bitrate:vector  ETV
attr interpolationmode sample-hold
attr title "tx bitrate, vector"
attr unit bps
293	13775 18 0 0 0 0 1 54000000 54000000 54000000 2.916e+015
vector 295  Blackhole_Network.node[9].wlan[0].radio  radioState:vector  ETV
attr interpolationmode sample-hold
attr title "radio state (enum), vector"
295	13804 11 0 0 0 0 1 0 0 0 0
vector 294  Blackhole_Network.node[9].wlan[0].radio  channelNo:vector  ETV
attr interpolationmode sample-hold
attr title "channel no, vector"
294	13793 11 0 0 0 0 1 0 0 0 0
