version 2
run General-0-20210106-16:25:49-16824
attr configname General
attr datetime 20210106-16:25:49
attr experiment General
attr inifile SimpleRouteError.ini
attr iterationvars ""
attr iterationvars2 $repetition=0
attr measurement ""
attr network SimpleRouteError
attr processid 16824
attr repetition 0
attr replication #0
attr resultdir results
attr runnumber 0
attr seedset 0

vector 15  SimpleRouteError.node[0].wlan[0].mgmt  dataQueueLen:vector  ETV
attr interpolationmode  sample-hold
attr title  "data queue length, vector"
vector 28  SimpleRouteError.node[1].wlan[0].mgmt  dataQueueLen:vector  ETV
attr interpolationmode  sample-hold
attr title  "data queue length, vector"
vector 48  SimpleRouteError.node[2].wlan[0].mgmt  dataQueueLen:vector  ETV
attr interpolationmode  sample-hold
attr title  "data queue length, vector"
vector 55  SimpleRouteError.node[0].wlan[0].mac  RadioState  ETV
attr enum  "IDLE=0, RECV=1, SLEEP=3, TRANSMIT=2"
attr enumname  RadioState
vector 54  SimpleRouteError.node[0].wlan[0].mac  State  ETV
attr enum  "BACKOFF=3, DEFER=1, IDLE=0, RECEIVE=8, WAITACK=4, WAITAIFS=2, WAITCTS=6, WAITMULTICAST=5, WAITSIFS=7"
attr enumname  Ieee80211Mac
vector 61  SimpleRouteError.node[1].wlan[0].mac  RadioState  ETV
attr enum  "IDLE=0, RECV=1, SLEEP=3, TRANSMIT=2"
attr enumname  RadioState
vector 60  SimpleRouteError.node[1].wlan[0].mac  State  ETV
attr enum  "BACKOFF=3, DEFER=1, IDLE=0, RECEIVE=8, WAITACK=4, WAITAIFS=2, WAITCTS=6, WAITMULTICAST=5, WAITSIFS=7"
attr enumname  Ieee80211Mac
vector 67  SimpleRouteError.node[2].wlan[0].mac  RadioState  ETV
attr enum  "IDLE=0, RECV=1, SLEEP=3, TRANSMIT=2"
attr enumname  RadioState
vector 66  SimpleRouteError.node[2].wlan[0].mac  State  ETV
attr enum  "BACKOFF=3, DEFER=1, IDLE=0, RECEIVE=8, WAITACK=4, WAITAIFS=2, WAITCTS=6, WAITMULTICAST=5, WAITSIFS=7"
attr enumname  Ieee80211Mac
vector 17  SimpleRouteError.node[0].wlan[0].radio  bitrate:vector  ETV
attr interpolationmode  sample-hold
attr title  "tx bitrate, vector"
attr unit  bps
vector 19  SimpleRouteError.node[0].wlan[0].radio  radioState:vector  ETV
attr interpolationmode  sample-hold
attr title  "radio state (enum), vector"
vector 18  SimpleRouteError.node[0].wlan[0].radio  channelNo:vector  ETV
attr interpolationmode  sample-hold
attr title  "channel no, vector"
vector 30  SimpleRouteError.node[1].wlan[0].radio  bitrate:vector  ETV
attr interpolationmode  sample-hold
attr title  "tx bitrate, vector"
attr unit  bps
vector 32  SimpleRouteError.node[1].wlan[0].radio  radioState:vector  ETV
attr interpolationmode  sample-hold
attr title  "radio state (enum), vector"
vector 31  SimpleRouteError.node[1].wlan[0].radio  channelNo:vector  ETV
attr interpolationmode  sample-hold
attr title  "channel no, vector"
vector 50  SimpleRouteError.node[2].wlan[0].radio  bitrate:vector  ETV
attr interpolationmode  sample-hold
attr title  "tx bitrate, vector"
attr unit  bps
vector 52  SimpleRouteError.node[2].wlan[0].radio  radioState:vector  ETV
attr interpolationmode  sample-hold
attr title  "radio state (enum), vector"
vector 51  SimpleRouteError.node[2].wlan[0].radio  channelNo:vector  ETV
attr interpolationmode  sample-hold
attr title  "channel no, vector"
vector 1  SimpleRouteError.node[0].udpApp[0]  sentPk:vector(packetBytes)  ETV
attr interpolationmode  none
attr source  sentPk
attr title  "packets sent, vector(packetBytes)"
vector 3  SimpleRouteError.node[0].udp  sentPk:vector(packetBytes)  ETV
attr interpolationmode  none
attr source  sentPk
attr title  "packets sent, vector(packetBytes)"
vector 65  SimpleRouteError.node[1].wlan[0].radio  snirVector  ETV
vector 57  SimpleRouteError.node[0].wlan[0].mac  "throughput AC0"  ETV
vector 63  SimpleRouteError.node[1].wlan[0].mac  "throughput AC0"  ETV
vector 69  SimpleRouteError.node[2].wlan[0].mac  "throughput AC0"  ETV
vector 59  SimpleRouteError.node[0].wlan[0].radio  snirVector  ETV
vector 71  SimpleRouteError.node[2].wlan[0].radio  snirVector  ETV
vector 70  SimpleRouteError.node[2].wlan[0].mac  "Mac delay AC0"  ETV
vector 64  SimpleRouteError.node[1].wlan[0].mac  "Mac delay AC0"  ETV
vector 22  SimpleRouteError.node[1].networkLayer.ip  rcvdPkt:vector  ETV
attr interpolationmode  none
attr title  "Number of packet received, vector"
vector 58  SimpleRouteError.node[0].wlan[0].mac  "Mac delay AC0"  ETV
vector 42  SimpleRouteError.node[2].networkLayer.ip  rcvdPkt:vector  ETV
attr interpolationmode  none
attr title  "Number of packet received, vector"
vector 37  SimpleRouteError.node[2].udp  rcvdPk:vector(packetBytes)  ETV
attr interpolationmode  none
attr source  rcvdPk
attr title  "packets received, vector(packetBytes)"
vector 38  SimpleRouteError.node[2].udp  passedUpPk:vector(count)  ETV
attr interpolationmode  none
attr title  "packets passed up, vector(count)"
vector 34  SimpleRouteError.node[2].udpApp[0]  rcvdPk:vector(packetBytes)  ETV
attr interpolationmode  none
attr source  rcvdPk
attr title  "packets received, vector(packetBytes)"
vector 35  SimpleRouteError.node[2].udpApp[0]  endToEndDelay:vector  ETV
attr interpolationmode  none
attr source  messageAge(rcvdPk)
attr title  "end-to-end delay, vector"
attr unit  s
vector 56  SimpleRouteError.node[0].wlan[0].mac  "jitter AC0"  ETV
vector 62  SimpleRouteError.node[1].wlan[0].mac  "jitter AC0"  ETV
vector 68  SimpleRouteError.node[2].wlan[0].mac  "jitter AC0"  ETV
1	3	0	512
1	331	0.50020552674	512
1	439	1.000539060162	512
1	664	1.500488455172	512
1	760	1.999922099438	512
1	815	2.499185695162	512
1	912	2.998515576083	512
1	967	3.498660079885	512
1	1019	3.997892483704	512
1	1074	4.498655954423	512
1	1126	4.998445693007	512
3	5	0	520
3	332	0.50020552674	520
3	440	1.000539060162	520
3	665	1.500488455172	520
3	761	1.999922099438	520
3	816	2.499185695162	520
3	913	2.998515576083	520
3	968	3.498660079885	520
3	1020	3.997892483704	520
3	1075	4.498655954423	520
3	1127	4.998445693007	520
15	0	0	0
17	0	0	54000000
18	0	0	0
19	0	0	0
19	17	0.004337728099	2
19	17	0.004337728099	2
19	21	0.004399728099	0
19	21	0.004399728099	0
19	42	0.243165818481	2
19	42	0.243165818481	2
19	46	0.243227818481	0
19	46	0.243227818481	0
19	65	0.245465087862	1
19	65	0.245465087862	1
19	69	0.245527087862	0
19	69	0.245527087862	0
19	100	0.245620701194	1
19	100	0.245620701194	1
19	103	0.245654701194	0
19	103	0.245654701194	0
19	125	0.245718314526	1
19	125	0.245718314526	1
19	139	0.245752314526	0
19	139	0.245752314526	0
19	148	0.245960314526	1
19	148	0.245960314526	1
19	151	0.245994314526	0
19	151	0.245994314526	0
19	166	0.246049927858	1
19	166	0.246049927858	1
19	169	0.246087927858	0
19	169	0.246087927858	0
19	190	0.24642254119	1
19	190	0.24642254119	1
19	193	0.24645654119	0
19	193	0.24645654119	0
19	199	0.24646654119	2
19	199	0.24646654119	2
19	202	0.24650054119	0
19	202	0.24650054119	0
19	208	0.246511874522	1
19	208	0.246511874522	1
19	211	0.246553874522	0
19	211	0.246553874522	0
19	219	0.246563874522	2
19	219	0.246563874522	2
19	230	0.246597874522	0
19	230	0.246597874522	0
19	238	0.246805874522	2
19	238	0.246805874522	2
19	241	0.246839874522	0
19	241	0.246839874522	0
19	247	0.246851207854	1
19	247	0.246851207854	1
19	250	0.246885207854	0
19	250	0.246885207854	0
19	256	0.246895207854	2
19	256	0.246895207854	2
19	259	0.247009207854	0
19	259	0.247009207854	0
19	272	0.247020541186	1
19	272	0.247020541186	1
19	276	0.247054541186	0
19	276	0.247054541186	0
19	284	0.247136541186	1
19	284	0.247136541186	1
19	287	0.247170541186	0
19	287	0.247170541186	0
19	302	0.247226154518	1
19	302	0.247226154518	1
19	305	0.247340154518	0
19	305	0.247340154518	0
19	340	0.50024352674	2
19	340	0.50024352674	2
19	343	0.50027752674	0
19	343	0.50027752674	0
19	349	0.500288860072	1
19	349	0.500288860072	1
19	352	0.500322860072	0
19	352	0.500322860072	0
19	358	0.500332860072	2
19	358	0.500332860072	2
19	361	0.500446860072	0
19	361	0.500446860072	0
19	374	0.500458193404	1
19	374	0.500458193404	1
19	378	0.500492193404	0
19	378	0.500492193404	0
19	386	0.500610193404	1
19	386	0.500610193404	1
19	389	0.500644193404	0
19	389	0.500644193404	0
19	404	0.500699826736	1
19	404	0.500699826736	1
19	407	0.500813826736	0
19	407	0.500813826736	0
19	448	1.000577060162	2
19	448	1.000577060162	2
19	451	1.000611060162	0
19	451	1.000611060162	0
19	457	1.000622393494	1
19	457	1.000622393494	1
19	460	1.000656393494	0
19	460	1.000656393494	0
19	464	1.000666393494	2
19	464	1.000666393494	2
19	467	1.000780393494	0
19	467	1.000780393494	0
19	480	1.000791726826	1
19	480	1.000791726826	1
19	483	1.000825726826	0
19	483	1.000825726826	0
19	491	1.001006726826	1
19	491	1.001006726826	1
19	494	1.001040726826	0
19	494	1.001040726826	0
19	502	1.001116726826	1
19	502	1.001116726826	1
19	505	1.001150726826	0
19	505	1.001150726826	0
19	513	1.002072726826	1
19	513	1.002072726826	1
19	516	1.002106726826	0
19	516	1.002106726826	0
19	525	1.003784726826	1
19	525	1.003784726826	1
19	528	1.003818726826	0
19	528	1.003818726826	0
19	537	1.006630726826	1
19	537	1.006630726826	1
19	540	1.006664726826	0
19	540	1.006664726826	0
19	549	1.012230726826	1
19	549	1.012230726826	1
19	552	1.012264726826	0
19	552	1.012264726826	0
19	561	1.015652726826	1
19	561	1.015652726826	1
19	564	1.015686726826	0
19	564	1.015686726826	0
19	578	1.019469044732	1
19	578	1.019469044732	1
19	582	1.019531044732	0
19	582	1.019531044732	0
19	599	1.021787599339	2
19	599	1.021787599339	2
19	603	1.021849599339	0
19	603	1.021849599339	0
19	625	1.257253427822	1
19	625	1.257253427822	1
19	629	1.257315427822	0
19	629	1.257315427822	0
19	646	1.260806733753	2
19	646	1.260806733753	2
19	650	1.260868733753	0
19	650	1.260868733753	0
19	673	1.500526455172	2
19	673	1.500526455172	2
19	676	1.500560455172	0
19	676	1.500560455172	0
19	682	1.500571788504	1
19	682	1.500571788504	1
19	685	1.500605788504	0
19	685	1.500605788504	0
19	689	1.500615788504	2
19	689	1.500615788504	2
19	692	1.500729788504	0
19	692	1.500729788504	0
19	703	1.500741121836	1
19	703	1.500741121836	1
19	706	1.500775121836	0
19	706	1.500775121836	0
19	723	1.820378514885	1
19	723	1.820378514885	1
19	727	1.820440514885	0
19	727	1.820440514885	0
19	744	1.825134995874	2
19	744	1.825134995874	2
19	748	1.825196995874	0
19	748	1.825196995874	0
19	769	1.999960099438	2
19	769	1.999960099438	2
19	772	1.999994099438	0
19	772	1.999994099438	0
19	782	2.00000543277	1
19	782	2.00000543277	1
19	785	2.00003943277	0
19	785	2.00003943277	0
19	789	2.00004943277	2
19	789	2.00004943277	2
19	792	2.00016343277	0
19	792	2.00016343277	0
19	803	2.000174766102	1
19	803	2.000174766102	1
19	806	2.000208766102	0
19	806	2.000208766102	0
19	824	2.499223695162	2
19	824	2.499223695162	2
19	827	2.499257695162	0
19	827	2.499257695162	0
19	833	2.499269028494	1
19	833	2.499269028494	1
19	836	2.499303028494	0
19	836	2.499303028494	0
19	840	2.499313028494	2
19	840	2.499313028494	2
19	843	2.499427028494	0
19	843	2.499427028494	0
19	854	2.499438361826	1
19	854	2.499438361826	1
19	857	2.499472361826	0
19	857	2.499472361826	0
19	872	2.537215108988	1
19	872	2.537215108988	1
19	876	2.537277108988	0
19	876	2.537277108988	0
19	893	2.538568874686	2
19	893	2.538568874686	2
19	897	2.538630874686	0
19	897	2.538630874686	0
19	921	2.998553576083	2
19	921	2.998553576083	2
19	924	2.998587576083	0
19	924	2.998587576083	0
19	930	2.998598909415	1
19	930	2.998598909415	1
19	933	2.998632909415	0
19	933	2.998632909415	0
19	937	2.998642909415	2
19	937	2.998642909415	2
19	940	2.998756909415	0
19	940	2.998756909415	0
19	951	2.998768242747	1
19	951	2.998768242747	1
19	954	2.998802242747	0
19	954	2.998802242747	0
19	976	3.498698079885	2
19	976	3.498698079885	2
19	979	3.498732079885	0
19	979	3.498732079885	0
19	985	3.498743413217	1
19	985	3.498743413217	1
19	988	3.498777413217	0
19	988	3.498777413217	0
19	992	3.498787413217	2
19	992	3.498787413217	2
19	995	3.498901413217	0
19	995	3.498901413217	0
19	1006	3.498912746549	1
19	1006	3.498912746549	1
19	1009	3.498946746549	0
19	1009	3.498946746549	0
19	1028	3.997930483704	2
19	1028	3.997930483704	2
19	1031	3.997964483704	0
19	1031	3.997964483704	0
19	1037	3.997975817036	1
19	1037	3.997975817036	1
19	1040	3.998009817036	0
19	1040	3.998009817036	0
19	1044	3.998019817036	2
19	1044	3.998019817036	2
19	1047	3.998133817036	0
19	1047	3.998133817036	0
19	1058	3.998145150368	1
19	1058	3.998145150368	1
19	1061	3.998179150368	0
19	1061	3.998179150368	0
19	1083	4.498693954423	2
19	1083	4.498693954423	2
19	1086	4.498727954423	0
19	1086	4.498727954423	0
19	1092	4.498739287755	1
19	1092	4.498739287755	1
19	1095	4.498773287755	0
19	1095	4.498773287755	0
19	1099	4.498783287755	2
19	1099	4.498783287755	2
19	1102	4.498897287755	0
19	1102	4.498897287755	0
19	1113	4.498908621087	1
19	1113	4.498908621087	1
19	1116	4.498942621087	0
19	1116	4.498942621087	0
19	1135	4.998483693007	2
19	1135	4.998483693007	2
19	1138	4.998517693007	0
19	1138	4.998517693007	0
19	1144	4.998529026339	1
19	1144	4.998529026339	1
19	1147	4.998563026339	0
19	1147	4.998563026339	0
19	1151	4.998573026339	2
19	1151	4.998573026339	2
19	1154	4.998687026339	0
19	1154	4.998687026339	0
22	266	0.24701987452	1
22	368	0.500457526738	2
22	474	1.00079106016	3
22	699	1.50074045517	4
22	799	2.000174099436	5
22	850	2.49943769516	6
22	947	2.998767576081	7
22	1002	3.498912079883	8
22	1054	3.998144483702	9
22	1109	4.498907954421	10
22	1161	4.998697693005	11
28	0	0	0
30	0	0	54000000
31	0	0	0
32	0	0	0
32	18	0.004338394765	1
32	18	0.004338394765	1
32	22	0.004400394765	0
32	22	0.004400394765	0
32	43	0.243166485147	1
32	43	0.243166485147	1
32	47	0.243228485147	0
32	47	0.243228485147	0
32	64	0.245464421196	2
32	64	0.245464421196	2
32	68	0.245526421196	0
32	68	0.245526421196	0
32	92	0.245576034528	1
32	92	0.245576034528	1
32	95	0.245610034528	0
32	95	0.245610034528	0
32	99	0.245620034528	2
32	99	0.245620034528	2
32	102	0.245654034528	0
32	102	0.245654034528	0
32	110	0.24566564786	1
32	110	0.24566564786	1
32	113	0.24570764786	0
32	113	0.24570764786	0
32	120	0.24571764786	2
32	120	0.24571764786	2
32	138	0.24575164786	0
32	138	0.24575164786	0
32	147	0.24595964786	2
32	147	0.24595964786	2
32	150	0.24599364786	0
32	150	0.24599364786	0
32	158	0.246005261192	1
32	158	0.246005261192	1
32	161	0.246039261192	0
32	161	0.246039261192	0
32	165	0.246049261192	2
32	165	0.246049261192	2
32	168	0.246087261192	0
32	168	0.246087261192	0
32	180	0.246098874524	1
32	180	0.246098874524	1
32	184	0.246132874524	0
32	184	0.246132874524	0
32	189	0.246421874524	2
32	189	0.246421874524	2
32	192	0.246455874524	0
32	192	0.246455874524	0
32	200	0.246467207856	1
32	200	0.246467207856	1
32	203	0.246501207856	0
32	203	0.246501207856	0
32	207	0.246511207856	2
32	207	0.246511207856	2
32	210	0.246553207856	0
32	210	0.246553207856	0
32	223	0.246564541188	1
32	223	0.246564541188	1
32	232	0.246598541188	0
32	232	0.246598541188	0
32	239	0.246806541188	1
32	239	0.246806541188	1
32	242	0.246840541188	0
32	242	0.246840541188	0
32	246	0.246850541188	2
32	246	0.246850541188	2
32	249	0.246884541188	0
32	249	0.246884541188	0
32	257	0.24689587452	1
32	257	0.24689587452	1
32	260	0.24700987452	0
32	260	0.24700987452	0
32	267	0.24701987452	2
32	267	0.24701987452	2
32	275	0.24705387452	0
32	275	0.24705387452	0
32	283	0.24713587452	2
32	283	0.24713587452	2
32	286	0.24716987452	0
32	286	0.24716987452	0
32	294	0.247181487852	1
32	294	0.247181487852	1
32	297	0.247215487852	0
32	297	0.247215487852	0
32	301	0.247225487852	2
32	301	0.247225487852	2
32	304	0.247339487852	0
32	304	0.247339487852	0
32	317	0.247351101184	1
32	317	0.247351101184	1
32	321	0.247385101184	0
32	321	0.247385101184	0
32	341	0.500244193406	1
32	341	0.500244193406	1
32	344	0.500278193406	0
32	344	0.500278193406	0
32	348	0.500288193406	2
32	348	0.500288193406	2
32	351	0.500322193406	0
32	351	0.500322193406	0
32	359	0.500333526738	1
32	359	0.500333526738	1
32	362	0.500447526738	0
32	362	0.500447526738	0
32	369	0.500457526738	2
32	369	0.500457526738	2
32	377	0.500491526738	0
32	377	0.500491526738	0
32	385	0.500609526738	2
32	385	0.500609526738	2
32	388	0.500643526738	0
32	388	0.500643526738	0
32	396	0.50065516007	1
32	396	0.50065516007	1
32	399	0.50068916007	0
32	399	0.50068916007	0
32	403	0.50069916007	2
32	403	0.50069916007	2
32	406	0.50081316007	0
32	406	0.50081316007	0
32	419	0.500824793402	1
32	419	0.500824793402	1
32	423	0.500858793402	0
32	423	0.500858793402	0
32	449	1.000577726828	1
32	449	1.000577726828	1
32	452	1.000611726828	0
32	452	1.000611726828	0
32	456	1.000621726828	2
32	456	1.000621726828	2
32	459	1.000655726828	0
32	459	1.000655726828	0
32	465	1.00066706016	1
32	465	1.00066706016	1
32	468	1.00078106016	0
32	468	1.00078106016	0
32	475	1.00079106016	2
32	475	1.00079106016	2
32	482	1.00082506016	0
32	482	1.00082506016	0
32	490	1.00100606016	2
32	490	1.00100606016	2
32	493	1.00104006016	0
32	493	1.00104006016	0
32	501	1.00111606016	2
32	501	1.00111606016	2
32	504	1.00115006016	0
32	504	1.00115006016	0
32	512	1.00207206016	2
32	512	1.00207206016	2
32	515	1.00210606016	0
32	515	1.00210606016	0
32	524	1.00378406016	2
32	524	1.00378406016	2
32	527	1.00381806016	0
32	527	1.00381806016	0
32	536	1.00663006016	2
32	536	1.00663006016	2
32	539	1.00666406016	0
32	539	1.00666406016	0
32	548	1.01223006016	2
32	548	1.01223006016	2
32	551	1.01226406016	0
32	551	1.01226406016	0
32	560	1.01565206016	2
32	560	1.01565206016	2
32	563	1.01568606016	0
32	563	1.01568606016	0
32	577	1.019468378066	2
32	577	1.019468378066	2
32	581	1.019530378066	0
32	581	1.019530378066	0
32	600	1.021788266005	1
32	600	1.021788266005	1
32	604	1.021850266005	0
32	604	1.021850266005	0
32	624	1.257252761156	2
32	624	1.257252761156	2
32	628	1.257314761156	0
32	628	1.257314761156	0
32	647	1.260807400419	1
32	647	1.260807400419	1
32	651	1.260869400419	0
32	651	1.260869400419	0
32	674	1.500527121838	1
32	674	1.500527121838	1
32	677	1.500561121838	0
32	677	1.500561121838	0
32	681	1.500571121838	2
32	681	1.500571121838	2
32	684	1.500605121838	0
32	684	1.500605121838	0
32	690	1.50061645517	1
32	690	1.50061645517	1
32	693	1.50073045517	0
32	693	1.50073045517	0
32	700	1.50074045517	2
32	700	1.50074045517	2
32	705	1.50077445517	0
32	705	1.50077445517	0
32	722	1.820377848219	2
32	722	1.820377848219	2
32	726	1.820439848219	0
32	726	1.820439848219	0
32	745	1.82513566254	1
32	745	1.82513566254	1
32	749	1.82519766254	0
32	749	1.82519766254	0
32	770	1.999960766104	1
32	770	1.999960766104	1
32	773	1.999994766104	0
32	773	1.999994766104	0
32	781	2.000004766104	2
32	781	2.000004766104	2
32	784	2.000038766104	0
32	784	2.000038766104	0
32	790	2.000050099436	1
32	790	2.000050099436	1
32	793	2.000164099436	0
32	793	2.000164099436	0
32	800	2.000174099436	2
32	800	2.000174099436	2
32	805	2.000208099436	0
32	805	2.000208099436	0
32	825	2.499224361828	1
32	825	2.499224361828	1
32	828	2.499258361828	0
32	828	2.499258361828	0
32	832	2.499268361828	2
32	832	2.499268361828	2
32	835	2.499302361828	0
32	835	2.499302361828	0
32	841	2.49931369516	1
32	841	2.49931369516	1
32	844	2.49942769516	0
32	844	2.49942769516	0
32	851	2.49943769516	2
32	851	2.49943769516	2
32	856	2.49947169516	0
32	856	2.49947169516	0
32	871	2.537214442322	2
32	871	2.537214442322	2
32	875	2.537276442322	0
32	875	2.537276442322	0
32	894	2.538569541352	1
32	894	2.538569541352	1
32	898	2.538631541352	0
32	898	2.538631541352	0
32	922	2.998554242749	1
32	922	2.998554242749	1
32	925	2.998588242749	0
32	925	2.998588242749	0
32	929	2.998598242749	2
32	929	2.998598242749	2
32	932	2.998632242749	0
32	932	2.998632242749	0
32	938	2.998643576081	1
32	938	2.998643576081	1
32	941	2.998757576081	0
32	941	2.998757576081	0
32	948	2.998767576081	2
32	948	2.998767576081	2
32	953	2.998801576081	0
32	953	2.998801576081	0
32	977	3.498698746551	1
32	977	3.498698746551	1
32	980	3.498732746551	0
32	980	3.498732746551	0
32	984	3.498742746551	2
32	984	3.498742746551	2
32	987	3.498776746551	0
32	987	3.498776746551	0
32	993	3.498788079883	1
32	993	3.498788079883	1
32	996	3.498902079883	0
32	996	3.498902079883	0
32	1003	3.498912079883	2
32	1003	3.498912079883	2
32	1008	3.498946079883	0
32	1008	3.498946079883	0
32	1029	3.99793115037	1
32	1029	3.99793115037	1
32	1032	3.99796515037	0
32	1032	3.99796515037	0
32	1036	3.99797515037	2
32	1036	3.99797515037	2
32	1039	3.99800915037	0
32	1039	3.99800915037	0
32	1045	3.998020483702	1
32	1045	3.998020483702	1
32	1048	3.998134483702	0
32	1048	3.998134483702	0
32	1055	3.998144483702	2
32	1055	3.998144483702	2
32	1060	3.998178483702	0
32	1060	3.998178483702	0
32	1084	4.498694621089	1
32	1084	4.498694621089	1
32	1087	4.498728621089	0
32	1087	4.498728621089	0
32	1091	4.498738621089	2
32	1091	4.498738621089	2
32	1094	4.498772621089	0
32	1094	4.498772621089	0
32	1100	4.498783954421	1
32	1100	4.498783954421	1
32	1103	4.498897954421	0
32	1103	4.498897954421	0
32	1110	4.498907954421	2
32	1110	4.498907954421	2
32	1115	4.498941954421	0
32	1115	4.498941954421	0
32	1136	4.998484359673	1
32	1136	4.998484359673	1
32	1139	4.998518359673	0
32	1139	4.998518359673	0
32	1143	4.998528359673	2
32	1143	4.998528359673	2
32	1146	4.998562359673	0
32	1146	4.998562359673	0
32	1152	4.998573693005	1
32	1152	4.998573693005	1
32	1155	4.998687693005	0
32	1155	4.998687693005	0
32	1162	4.998697693005	2
32	1162	4.998697693005	2
34	316	0.247350294518	512
34	418	0.500823976736	512
35	316	0.247350294518	0.247350294518
35	418	0.500823976736	0.000618449996
37	315	0.247350294518	520
37	417	0.500823976736	520
38	315	0.247350294518	1
38	417	0.500823976736	2
42	312	0.247350294518	1
42	414	0.500823976736	2
48	0	0	0
50	0	0	54000000
51	0	0	0
52	0	0	0
52	66	0.245465227862	1
52	66	0.245465227862	1
52	73	0.245527227862	0
52	73	0.245527227862	0
52	91	0.245575227862	2
52	91	0.245575227862	2
52	94	0.245609227862	0
52	94	0.245609227862	0
52	101	0.245620841194	1
52	101	0.245620841194	1
52	106	0.245654841194	0
52	106	0.245654841194	0
52	109	0.245664841194	2
52	109	0.245664841194	2
52	112	0.245706841194	0
52	112	0.245706841194	0
52	126	0.245718454526	1
52	126	0.245718454526	1
52	141	0.245752454526	0
52	141	0.245752454526	0
52	149	0.245960454526	1
52	149	0.245960454526	1
52	154	0.245994454526	0
52	154	0.245994454526	0
52	157	0.246004454526	2
52	157	0.246004454526	2
52	160	0.246038454526	0
52	160	0.246038454526	0
52	167	0.246050067858	1
52	167	0.246050067858	1
52	171	0.246088067858	0
52	171	0.246088067858	0
52	177	0.246098067858	2
52	177	0.246098067858	2
52	183	0.246132067858	0
52	183	0.246132067858	0
52	191	0.24642268119	1
52	191	0.24642268119	1
52	195	0.24645668119	0
52	195	0.24645668119	0
52	209	0.246512014522	1
52	209	0.246512014522	1
52	215	0.246554014522	0
52	215	0.246554014522	0
52	248	0.246851347854	1
52	248	0.246851347854	1
52	252	0.246885347854	0
52	252	0.246885347854	0
52	273	0.247020681186	1
52	273	0.247020681186	1
52	278	0.247054681186	0
52	278	0.247054681186	0
52	285	0.247136681186	1
52	285	0.247136681186	1
52	290	0.247170681186	0
52	290	0.247170681186	0
52	293	0.247180681186	2
52	293	0.247180681186	2
52	296	0.247214681186	0
52	296	0.247214681186	0
52	303	0.247226294518	1
52	303	0.247226294518	1
52	307	0.247340294518	0
52	307	0.247340294518	0
52	313	0.247350294518	2
52	313	0.247350294518	2
52	320	0.247384294518	0
52	320	0.247384294518	0
52	350	0.500289010072	1
52	350	0.500289010072	1
52	354	0.500323010072	0
52	354	0.500323010072	0
52	375	0.500458343404	1
52	375	0.500458343404	1
52	380	0.500492343404	0
52	380	0.500492343404	0
52	387	0.500610343404	1
52	387	0.500610343404	1
52	392	0.500644343404	0
52	392	0.500644343404	0
52	395	0.500654343404	2
52	395	0.500654343404	2
52	398	0.500688343404	0
52	398	0.500688343404	0
52	405	0.500699976736	1
52	405	0.500699976736	1
52	409	0.500813976736	0
52	409	0.500813976736	0
52	415	0.500823976736	2
52	415	0.500823976736	2
52	422	0.500857976736	0
52	422	0.500857976736	0
52	458	1.000622560161	1
52	458	1.000622560161	1
52	462	1.000656560161	0
52	462	1.000656560161	0
52	481	1.000791893493	1
52	481	1.000791893493	1
52	485	1.000825893493	0
52	485	1.000825893493	0
52	492	1.001006893493	1
52	492	1.001006893493	1
52	497	1.001040893493	0
52	497	1.001040893493	0
52	503	1.001116893493	1
52	503	1.001116893493	1
52	507	1.001150893493	0
52	507	1.001150893493	0
52	514	1.002072893493	1
52	514	1.002072893493	1
52	519	1.002106893493	0
52	519	1.002106893493	0
52	526	1.003784893493	1
52	526	1.003784893493	1
52	531	1.003818893493	0
52	531	1.003818893493	0
52	538	1.006630893493	1
52	538	1.006630893493	1
52	543	1.006664893493	0
52	543	1.006664893493	0
52	550	1.012230893493	1
52	550	1.012230893493	1
52	555	1.012264893493	0
52	555	1.012264893493	0
52	562	1.015652893493	1
52	562	1.015652893493	1
52	567	1.015686893493	0
52	567	1.015686893493	0
52	579	1.019469211399	1
52	579	1.019469211399	1
52	586	1.019531211399	0
52	586	1.019531211399	0
54	0	0	0
54	0	0	0
54	15	0.004309728099	0
54	15	0.004309728099	2
54	16	0.004337728099	2
54	16	0.004337728099	5
54	17	0.004337728099	5
54	17	0.004337728099	5
54	20	0.004399728099	5
54	20	0.004399728099	1
54	21	0.004399728099	1
54	21	0.004399728099	2
54	30	0.004427728099	2
54	30	0.004427728099	3
54	31	0.004508728099	3
54	31	0.004508728099	0
54	40	0.243137818481	0
54	40	0.243137818481	2
54	41	0.243165818481	2
54	41	0.243165818481	5
54	42	0.243165818481	5
54	42	0.243165818481	5
54	45	0.243227818481	5
54	45	0.243227818481	1
54	46	0.243227818481	1
54	46	0.243227818481	2
54	55	0.243255818481	2
54	55	0.243255818481	3
54	56	0.243462818481	3
54	56	0.243462818481	0
54	65	0.245465087862	0
54	65	0.245465087862	0
54	69	0.245527087862	0
54	69	0.245527087862	0
54	70	0.245527087862	0
54	70	0.245527087862	0
54	100	0.245620701194	0
54	100	0.245620701194	0
54	103	0.245654701194	0
54	103	0.245654701194	0
54	104	0.245654701194	0
54	104	0.245654701194	0
54	105	0.245654701194	0
54	105	0.245654701194	0
54	125	0.245718314526	0
54	125	0.245718314526	0
54	137	0.245750701194	0
54	137	0.245750701194	0
54	139	0.245752314526	0
54	139	0.245752314526	0
54	140	0.245752314526	0
54	140	0.245752314526	0
54	148	0.245960314526	0
54	148	0.245960314526	0
54	151	0.245994314526	0
54	151	0.245994314526	0
54	152	0.245994314526	0
54	152	0.245994314526	0
54	153	0.245994314526	0
54	153	0.245994314526	0
54	166	0.246049927858	0
54	166	0.246049927858	0
54	169	0.246087927858	0
54	169	0.246087927858	0
54	170	0.246087927858	0
54	170	0.246087927858	0
54	182	0.246131927858	0
54	182	0.246131927858	0
54	190	0.24642254119	0
54	190	0.24642254119	0
54	193	0.24645654119	0
54	193	0.24645654119	0
54	194	0.24645654119	0
54	194	0.24645654119	7
54	198	0.24646654119	7
54	198	0.24646654119	0
54	199	0.24646654119	0
54	199	0.24646654119	0
54	202	0.24650054119	0
54	202	0.24650054119	0
54	208	0.246511874522	0
54	208	0.246511874522	0
54	211	0.246553874522	0
54	211	0.246553874522	0
54	212	0.246553874522	0
54	212	0.246553874522	7
54	217	0.246563874522	7
54	217	0.246563874522	0
54	219	0.246563874522	0
54	219	0.246563874522	0
54	229	0.246573874522	0
54	229	0.246573874522	1
54	230	0.246597874522	1
54	230	0.246597874522	2
54	235	0.246625874522	2
54	235	0.246625874522	3
54	237	0.246805874522	3
54	237	0.246805874522	6
54	238	0.246805874522	6
54	238	0.246805874522	6
54	241	0.246839874522	6
54	241	0.246839874522	6
54	247	0.246851207854	6
54	247	0.246851207854	6
54	250	0.246885207854	6
54	250	0.246885207854	6
54	251	0.246885207854	6
54	251	0.246885207854	7
54	255	0.246895207854	7
54	255	0.246895207854	4
54	256	0.246895207854	4
54	256	0.246895207854	4
54	259	0.247009207854	4
54	259	0.247009207854	4
54	272	0.247020541186	4
54	272	0.247020541186	4
54	276	0.247054541186	4
54	276	0.247054541186	4
54	277	0.247054541186	4
54	277	0.247054541186	2
54	281	0.247082541186	2
54	281	0.247082541186	3
54	284	0.247136541186	3
54	284	0.247136541186	1
54	287	0.247170541186	1
54	287	0.247170541186	2
54	288	0.247170541186	2
54	288	0.247170541186	1
54	289	0.247170541186	1
54	289	0.247170541186	1
54	302	0.247226154518	1
54	302	0.247226154518	1
54	305	0.247340154518	1
54	305	0.247340154518	1
54	306	0.247340154518	1
54	306	0.247340154518	1
54	319	0.247384154518	1
54	319	0.247384154518	2
54	324	0.247412154518	2
54	324	0.247412154518	3
54	326	0.247430154518	3
54	326	0.247430154518	0
54	338	0.50021552674	0
54	338	0.50021552674	2
54	339	0.50024352674	2
54	339	0.50024352674	6
54	340	0.50024352674	6
54	340	0.50024352674	6
54	343	0.50027752674	6
54	343	0.50027752674	6
54	349	0.500288860072	6
54	349	0.500288860072	6
54	352	0.500322860072	6
54	352	0.500322860072	6
54	353	0.500322860072	6
54	353	0.500322860072	7
54	357	0.500332860072	7
54	357	0.500332860072	4
54	358	0.500332860072	4
54	358	0.500332860072	4
54	361	0.500446860072	4
54	361	0.500446860072	4
54	374	0.500458193404	4
54	374	0.500458193404	4
54	378	0.500492193404	4
54	378	0.500492193404	4
54	379	0.500492193404	4
54	379	0.500492193404	2
54	383	0.500520193404	2
54	383	0.500520193404	3
54	386	0.500610193404	3
54	386	0.500610193404	1
54	389	0.500644193404	1
54	389	0.500644193404	2
54	390	0.500644193404	2
54	390	0.500644193404	1
54	391	0.500644193404	1
54	391	0.500644193404	1
54	404	0.500699826736	1
54	404	0.500699826736	1
54	407	0.500813826736	1
54	407	0.500813826736	1
54	408	0.500813826736	1
54	408	0.500813826736	1
54	421	0.500857826736	1
54	421	0.500857826736	2
54	426	0.500885826736	2
54	426	0.500885826736	3
54	428	0.500975826736	3
54	428	0.500975826736	0
54	446	1.000549060162	0
54	446	1.000549060162	2
54	447	1.000577060162	2
54	447	1.000577060162	6
54	448	1.000577060162	6
54	448	1.000577060162	6
54	451	1.000611060162	6
54	451	1.000611060162	6
54	457	1.000622393494	6
54	457	1.000622393494	6
54	460	1.000656393494	6
54	460	1.000656393494	6
54	461	1.000656393494	6
54	461	1.000656393494	7
54	463	1.000666393494	7
54	463	1.000666393494	4
54	464	1.000666393494	4
54	464	1.000666393494	4
54	467	1.000780393494	4
54	467	1.000780393494	4
54	480	1.000791726826	4
54	480	1.000791726826	4
54	483	1.000825726826	4
54	483	1.000825726826	4
54	484	1.000825726826	4
54	484	1.000825726826	2
54	487	1.000853726826	2
54	487	1.000853726826	3
54	488	1.000898726826	3
54	488	1.000898726826	0
54	491	1.001006726826	0
54	491	1.001006726826	0
54	494	1.001040726826	0
54	494	1.001040726826	0
54	495	1.001040726826	0
54	495	1.001040726826	0
54	496	1.001040726826	0
54	496	1.001040726826	0
54	502	1.001116726826	0
54	502	1.001116726826	0
54	505	1.001150726826	0
54	505	1.001150726826	0