version 2
run General-0-20201229-15:12:57-9540
attr configname General
attr datetime 20201229-15:12:57
attr experiment General
attr inifile SimpleDelay.ini
attr iterationvars ""
attr iterationvars2 $repetition=0
attr measurement ""
attr network SimpleDelay
attr processid 9540
attr repetition 0
attr replication #0
attr resultdir results
attr runnumber 0
attr seedset 0

vector 15  SimpleDelay.node[0].wlan[0].mgmt  dataQueueLen:vector  ETV
attr interpolationmode  sample-hold
attr title  "data queue length, vector"
vector 35  SimpleDelay.node[1].wlan[0].mgmt  dataQueueLen:vector  ETV
attr interpolationmode  sample-hold
attr title  "data queue length, vector"
vector 48  SimpleDelay.attacker[0].wlan[0].mgmt  dataQueueLen:vector  ETV
attr interpolationmode  sample-hold
attr title  "data queue length, vector"
vector 55  SimpleDelay.node[0].wlan[0].mac  RadioState  ETV
attr enum  "IDLE=0, RECV=1, SLEEP=3, TRANSMIT=2"
attr enumname  RadioState
vector 54  SimpleDelay.node[0].wlan[0].mac  State  ETV
attr enum  "BACKOFF=3, DEFER=1, IDLE=0, RECEIVE=8, WAITACK=4, WAITAIFS=2, WAITCTS=6, WAITMULTICAST=5, WAITSIFS=7"
attr enumname  Ieee80211Mac
vector 61  SimpleDelay.node[1].wlan[0].mac  RadioState  ETV
attr enum  "IDLE=0, RECV=1, SLEEP=3, TRANSMIT=2"
attr enumname  RadioState
vector 60  SimpleDelay.node[1].wlan[0].mac  State  ETV
attr enum  "BACKOFF=3, DEFER=1, IDLE=0, RECEIVE=8, WAITACK=4, WAITAIFS=2, WAITCTS=6, WAITMULTICAST=5, WAITSIFS=7"
attr enumname  Ieee80211Mac
vector 67  SimpleDelay.attacker[0].wlan[0].mac  RadioState  ETV
attr enum  "IDLE=0, RECV=1, SLEEP=3, TRANSMIT=2"
attr enumname  RadioState
vector 66  SimpleDelay.attacker[0].wlan[0].mac  State  ETV
attr enum  "BACKOFF=3, DEFER=1, IDLE=0, RECEIVE=8, WAITACK=4, WAITAIFS=2, WAITCTS=6, WAITMULTICAST=5, WAITSIFS=7"
attr enumname  Ieee80211Mac
vector 17  SimpleDelay.node[0].wlan[0].radio  bitrate:vector  ETV
attr interpolationmode  sample-hold
attr title  "tx bitrate, vector"
attr unit  bps
vector 19  SimpleDelay.node[0].wlan[0].radio  radioState:vector  ETV
attr interpolationmode  sample-hold
attr title  "radio state (enum), vector"
vector 18  SimpleDelay.node[0].wlan[0].radio  channelNo:vector  ETV
attr interpolationmode  sample-hold
attr title  "channel no, vector"
vector 37  SimpleDelay.node[1].wlan[0].radio  bitrate:vector  ETV
attr interpolationmode  sample-hold
attr title  "tx bitrate, vector"
attr unit  bps
vector 39  SimpleDelay.node[1].wlan[0].radio  radioState:vector  ETV
attr interpolationmode  sample-hold
attr title  "radio state (enum), vector"
vector 38  SimpleDelay.node[1].wlan[0].radio  channelNo:vector  ETV
attr interpolationmode  sample-hold
attr title  "channel no, vector"
vector 50  SimpleDelay.attacker[0].wlan[0].radio  bitrate:vector  ETV
attr interpolationmode  sample-hold
attr title  "tx bitrate, vector"
attr unit  bps
vector 52  SimpleDelay.attacker[0].wlan[0].radio  radioState:vector  ETV
attr interpolationmode  sample-hold
attr title  "radio state (enum), vector"
vector 51  SimpleDelay.attacker[0].wlan[0].radio  channelNo:vector  ETV
attr interpolationmode  sample-hold
attr title  "channel no, vector"
vector 1  SimpleDelay.node[0].udpApp[0]  sentPk:vector(packetBytes)  ETV
attr interpolationmode  none
attr source  sentPk
attr title  "packets sent, vector(packetBytes)"
vector 3  SimpleDelay.node[0].udp  sentPk:vector(packetBytes)  ETV
attr interpolationmode  none
attr source  sentPk
attr title  "packets sent, vector(packetBytes)"
vector 57  SimpleDelay.node[0].wlan[0].mac  "throughput AC0"  ETV
vector 69  SimpleDelay.attacker[0].wlan[0].mac  "throughput AC0"  ETV
vector 71  SimpleDelay.attacker[0].wlan[0].radio  snirVector  ETV
1	5	1	512
3	9	1	520
15	0	0	0
17	0	0	54000000
18	0	0	0
19	0	0	0
19	21	1.004337728099	2
19	21	1.004337728099	2
19	25	1.004399728099	0
19	25	1.004399728099	0
19	44	1.243165818481	2
19	44	1.243165818481	2
19	48	1.243227818481	0
19	48	1.243227818481	0
35	0	0	0
37	0	0	54000000
38	0	0	0
39	0	0	0
48	0	0	0
50	0	0	54000000
51	0	0	0
52	0	0	0
52	22	1.004338394765	1
52	22	1.004338394765	1
52	26	1.004400394765	0
52	26	1.004400394765	0
52	45	1.243166485147	1
52	45	1.243166485147	1
52	49	1.243228485147	0
52	49	1.243228485147	0
52	66	1.245464421196	2
52	66	1.245464421196	2
54	0	0	0
54	0	0	0
54	19	1.004309728099	0
54	19	1.004309728099	2
54	20	1.004337728099	2
54	20	1.004337728099	5
54	21	1.004337728099	5
54	21	1.004337728099	5
54	24	1.004399728099	5
54	24	1.004399728099	1
54	25	1.004399728099	1
54	25	1.004399728099	2
54	34	1.004427728099	2
54	34	1.004427728099	3
54	35	1.004508728099	3
54	35	1.004508728099	0
54	42	1.243137818481	0
54	42	1.243137818481	2
54	43	1.243165818481	2
54	43	1.243165818481	5
54	44	1.243165818481	5
54	44	1.243165818481	5
54	47	1.243227818481	5
54	47	1.243227818481	1
54	48	1.243227818481	1
54	48	1.243227818481	2
54	57	1.243255818481	2
54	57	1.243255818481	3
54	58	1.243462818481	3
54	58	1.243462818481	0
55	0	0	0
55	0	0	0
55	21	1.004337728099	0
55	21	1.004337728099	2
55	25	1.004399728099	2
55	25	1.004399728099	0
55	44	1.243165818481	0
55	44	1.243165818481	2
55	48	1.243227818481	2
55	48	1.243227818481	0
57	19	1.004309728099	0
57	42	1.243137818481	3148.7083399494
60	0	0	0
60	0	0	0
61	0	0	0
61	0	0	0
66	0	0	0
66	0	0	0
66	22	1.004338394765	0
66	22	1.004338394765	0
66	26	1.004400394765	0
66	26	1.004400394765	0
66	27	1.004400394765	0
66	27	1.004400394765	0
66	45	1.243166485147	0
66	45	1.243166485147	0
66	49	1.243228485147	0
66	49	1.243228485147	0
66	50	1.243228485147	0
66	50	1.243228485147	0
66	64	1.245436421196	0
66	64	1.245436421196	2
66	65	1.245464421196	2
66	65	1.245464421196	5
66	66	1.245464421196	5
66	66	1.245464421196	5
67	0	0	0
67	0	0	0
67	22	1.004338394765	0
67	22	1.004338394765	1
67	26	1.004400394765	1
67	26	1.004400394765	0
67	45	1.243166485147	0
67	45	1.243166485147	1
67	49	1.243228485147	1
67	49	1.243228485147	0
67	66	1.245464421196	0
67	66	1.245464421196	2
69	22	1.004338394765	0
69	45	1.243166485147	0
71	26	1.004400394765	26.937691987245
