file 32384 1609254669                                           
version 2
run General-0-20201229-16:10:17-16296
attr configname General
attr datetime 20201229-16:10:17
attr experiment General
attr inifile SimpleSinkholeRoute.ini
attr iterationvars ""
attr iterationvars2 $repetition=0
attr measurement ""
attr network SimpleSinkholeRoute
attr processid 16296
attr repetition 0
attr replication #0
attr resultdir results
attr runnumber 0
attr seedset 0

vector 15  SimpleSinkholeRoute.nodeA.wlan[0].mgmt  dataQueueLen:vector  ETV
attr interpolationmode  sample-hold
attr title  "data queue length, vector"
vector 36  SimpleSinkholeRoute.nodeB.wlan[0].mgmt  dataQueueLen:vector  ETV
attr interpolationmode  sample-hold
attr title  "data queue length, vector"
vector 49  SimpleSinkholeRoute.nodeC.wlan[0].mgmt  dataQueueLen:vector  ETV
attr interpolationmode  sample-hold
attr title  "data queue length, vector"
vector 72  SimpleSinkholeRoute.nodeD.wlan[0].mgmt  dataQueueLen:vector  ETV
attr interpolationmode  sample-hold
attr title  "data queue length, vector"
vector 85  SimpleSinkholeRoute.attacker.wlan[0].mgmt  dataQueueLen:vector  ETV
attr interpolationmode  sample-hold
attr title  "data queue length, vector"
vector 92  SimpleSinkholeRoute.nodeA.wlan[0].mac  RadioState  ETV
attr enum  "IDLE=0, RECV=1, SLEEP=3, TRANSMIT=2"
attr enumname  RadioState
vector 91  SimpleSinkholeRoute.nodeA.wlan[0].mac  State  ETV
attr enum  "BACKOFF=3, DEFER=1, IDLE=0, RECEIVE=8, WAITACK=4, WAITAIFS=2, WAITCTS=6, WAITMULTICAST=5, WAITSIFS=7"
attr enumname  Ieee80211Mac
vector 98  SimpleSinkholeRoute.nodeB.wlan[0].mac  RadioState  ETV
attr enum  "IDLE=0, RECV=1, SLEEP=3, TRANSMIT=2"
attr enumname  RadioState
vector 97  SimpleSinkholeRoute.nodeB.wlan[0].mac  State  ETV
attr enum  "BACKOFF=3, DEFER=1, IDLE=0, RECEIVE=8, WAITACK=4, WAITAIFS=2, WAITCTS=6, WAITMULTICAST=5, WAITSIFS=7"
attr enumname  Ieee80211Mac
vector 104  SimpleSinkholeRoute.nodeC.wlan[0].mac  RadioState  ETV
attr enum  "IDLE=0, RECV=1, SLEEP=3, TRANSMIT=2"
attr enumname  RadioState
vector 103  SimpleSinkholeRoute.nodeC.wlan[0].mac  State  ETV
attr enum  "BACKOFF=3, DEFER=1, IDLE=0, RECEIVE=8, WAITACK=4, WAITAIFS=2, WAITCTS=6, WAITMULTICAST=5, WAITSIFS=7"
attr enumname  Ieee80211Mac
vector 110  SimpleSinkholeRoute.nodeD.wlan[0].mac  RadioState  ETV
attr enum  "IDLE=0, RECV=1, SLEEP=3, TRANSMIT=2"
attr enumname  RadioState
vector 109  SimpleSinkholeRoute.nodeD.wlan[0].mac  State  ETV
attr enum  "BACKOFF=3, DEFER=1, IDLE=0, RECEIVE=8, WAITACK=4, WAITAIFS=2, WAITCTS=6, WAITMULTICAST=5, WAITSIFS=7"
attr enumname  Ieee80211Mac
vector 116  SimpleSinkholeRoute.attacker.wlan[0].mac  RadioState  ETV
attr enum  "IDLE=0, RECV=1, SLEEP=3, TRANSMIT=2"
attr enumname  RadioState
vector 115  SimpleSinkholeRoute.attacker.wlan[0].mac  State  ETV
attr enum  "BACKOFF=3, DEFER=1, IDLE=0, RECEIVE=8, WAITACK=4, WAITAIFS=2, WAITCTS=6, WAITMULTICAST=5, WAITSIFS=7"
attr enumname  Ieee80211Mac
vector 17  SimpleSinkholeRoute.nodeA.wlan[0].radio  bitrate:vector  ETV
attr interpolationmode  sample-hold
attr title  "tx bitrate, vector"
attr unit  bps
vector 19  SimpleSinkholeRoute.nodeA.wlan[0].radio  radioState:vector  ETV
attr interpolationmode  sample-hold
attr title  "radio state (enum), vector"
vector 18  SimpleSinkholeRoute.nodeA.wlan[0].radio  channelNo:vector  ETV
attr interpolationmode  sample-hold
attr title  "channel no, vector"
vector 38  SimpleSinkholeRoute.nodeB.wlan[0].radio  bitrate:vector  ETV
attr interpolationmode  sample-hold
attr title  "tx bitrate, vector"
attr unit  bps
vector 40  SimpleSinkholeRoute.nodeB.wlan[0].radio  radioState:vector  ETV
attr interpolationmode  sample-hold
attr title  "radio state (enum), vector"
vector 39  SimpleSinkholeRoute.nodeB.wlan[0].radio  channelNo:vector  ETV
attr interpolationmode  sample-hold
attr title  "channel no, vector"
vector 51  SimpleSinkholeRoute.nodeC.wlan[0].radio  bitrate:vector  ETV
attr interpolationmode  sample-hold
attr title  "tx bitrate, vector"
attr unit  bps
vector 53  SimpleSinkholeRoute.nodeC.wlan[0].radio  radioState:vector  ETV
attr interpolationmode  sample-hold
attr title  "radio state (enum), vector"
vector 52  SimpleSinkholeRoute.nodeC.wlan[0].radio  channelNo:vector  ETV
attr interpolationmode  sample-hold
attr title  "channel no, vector"
vector 74  SimpleSinkholeRoute.nodeD.wlan[0].radio  bitrate:vector  ETV
attr interpolationmode  sample-hold
attr title  "tx bitrate, vector"
attr unit  bps
vector 76  SimpleSinkholeRoute.nodeD.wlan[0].radio  radioState:vector  ETV
attr interpolationmode  sample-hold
attr title  "radio state (enum), vector"
vector 75  SimpleSinkholeRoute.nodeD.wlan[0].radio  channelNo:vector  ETV
attr interpolationmode  sample-hold
attr title  "channel no, vector"
vector 87  SimpleSinkholeRoute.attacker.wlan[0].radio  bitrate:vector  ETV
attr interpolationmode  sample-hold
attr title  "tx bitrate, vector"
attr unit  bps
vector 89  SimpleSinkholeRoute.attacker.wlan[0].radio  radioState:vector  ETV
attr interpolationmode  sample-hold
attr title  "radio state (enum), vector"
vector 88  SimpleSinkholeRoute.attacker.wlan[0].radio  channelNo:vector  ETV
attr interpolationmode  sample-hold
attr title  "channel no, vector"
vector 1  SimpleSinkholeRoute.nodeA.udpApp[0]  sentPk:vector(packetBytes)  ETV
attr interpolationmode  none
attr source  sentPk
attr title  "packets sent, vector(packetBytes)"
vector 3  SimpleSinkholeRoute.nodeA.udp  sentPk:vector(packetBytes)  ETV
attr interpolationmode  none
attr source  sentPk
attr title  "packets sent, vector(packetBytes)"
vector 120  SimpleSinkholeRoute.attacker.wlan[0].radio  snirVector  ETV
vector 94  SimpleSinkholeRoute.nodeA.wlan[0].mac  "throughput AC0"  ETV
vector 118  SimpleSinkholeRoute.attacker.wlan[0].mac  "throughput AC0"  ETV
vector 100  SimpleSinkholeRoute.nodeB.wlan[0].mac  "throughput AC0"  ETV
vector 106  SimpleSinkholeRoute.nodeC.wlan[0].mac  "throughput AC0"  ETV
vector 102  SimpleSinkholeRoute.nodeB.wlan[0].radio  snirVector  ETV
vector 96  SimpleSinkholeRoute.nodeA.wlan[0].radio  snirVector  ETV
vector 108  SimpleSinkholeRoute.nodeC.wlan[0].radio  snirVector  ETV
vector 112  SimpleSinkholeRoute.nodeD.wlan[0].mac  "throughput AC0"  ETV
vector 114  SimpleSinkholeRoute.nodeD.wlan[0].radio  snirVector  ETV
vector 113  SimpleSinkholeRoute.nodeD.wlan[0].mac  "Mac delay AC0"  ETV
vector 107  SimpleSinkholeRoute.nodeC.wlan[0].mac  "Mac delay AC0"  ETV
vector 119  SimpleSinkholeRoute.attacker.wlan[0].mac  "Mac delay AC0"  ETV
vector 79  SimpleSinkholeRoute.attacker.networkLayer.ip  rcvdPkt:vector  ETV
attr interpolationmode  none
attr title  "Number of packet received, vector"
1	6717 11 3 3 0 0 1 512 512 512 262144
3	6728 11 6 6 0 0 1 520 520 520 270400
15	6739 10 0 0 0 0 1 0 0 0 0
17	6749 17 0 0 0 0 1 54000000 54000000 54000000 2.916e+015
18	6766 10 0 0 0 0 1 0 0 0 0
19	6776 1186 0 426 0 0.251823400592 49 0 2 36 60
36	7962 10 0 0 0 0 1 0 0 0 0
38	7972 17 0 0 0 0 1 54000000 54000000 54000000 2.916e+015
39	7989 10 0 0 0 0 1 0 0 0 0
40	7999 1202 0 411 0 0.251699066163 49 0 2 26 30
49	9201 10 0 0 0 0 1 0 0 0 0
51	9211 17 0 0 0 0 1 54000000 54000000 54000000 2.916e+015
52	9228 10 0 0 0 0 1 0 0 0 0
53	9238 1402 0 415 0 0.251699400592 57 0 2 38 58
72	10640 10 0 0 0 0 1 0 0 0 0
74	10650 17 0 0 0 0 1 54000000 54000000 54000000 2.916e+015
75	10667 10 0 0 0 0 1 0 0 0 0
76	10677 710 0 285 0 0.251064758881 29 0 2 18 26
79	11387 25 435 435 0.251834107698 0.251834107698 1 1 1 1 1
85	11412 10 0 0 0 0 1 0 0 0 0
87	11422 17 0 0 0 0 1 54000000 54000000 54000000 2.916e+015
88	11439 10 0 0 0 0 1 0 0 0 0
89	11449 1820 0 436 0 0.251834107698 75 0 2 52 80
91	13269 2364 0 426 0 0.251823400592 98 0 7 206 1034
92	15633 1196 0 426 0 0.251823400592 50 0 2 36 60
94	16829 38 43 43 0.244080843632 0.244080843632 1 3080.9464143519 3080.9464143519 3080.9464143519 9492230.8081079
96	16867 38 82 82 0.247122480662 0.247122480662 1 26.426166762771 26.426166762771 26.426166762771 698.34228977378
97	16905 2356 0 413 0 0.251699066163 96 0 5 36 136
98	19261 1212 0 411 0 0.251699066163 50 0 2 26 30
100	20473 25 72 72 0.247060146233 0.247060146233 1 0 0 0 0
102	20498 39 78 78 0.247122146233 0.247122146233 1 31.989191770444 31.989191770444 31.989191770444 1023.3083901262
103	20537 2712 0 418 0 0.251699400592 106 0 7 206 1014
104	23249 1470 0 415 0 0.251699400592 58 0 2 38 58
106	24719 25 74 74 0.247060480662 0.247060480662 1 0 0 0 0
107	24744 39 318 318 0.251109572168 0.251109572168 1 0.000435828424 0.000435828424 0.000435828424 1.8994641516632e-007
108	24783 39 83 83 0.247122480662 0.247122480662 1 26.426166762771 26.426166762771 26.426166762771 698.34228977377
109	24822 1374 0 310 0 0.251108758881 54 0 7 128 652
110	26196 750 0 285 0 0.251064758881 30 0 2 18 26
112	26946 26 142 142 0.250411940969 0.250411940969 1 0 0 0 0
113	26972 37 238 238 0.250698344669 0.250698344669 1 0.0002044037 0.0002044037 0.0002044037 4.178087257369e-008
114	27009 40 148 148 0.250473940969 0.250473940969 1 27.839458290736 27.839458290736 27.839458290736 775.03543792161
115	27049 3326 0 436 0 0.251834107698 132 0 7 234 1210
116	30375 1906 0 436 0 0.251834107698 76 0 2 50 76
118	32281 25 46 46 0.244109550738 0.244109550738 1 0 0 0 0
119	32306 39 386 386 0.251592693486 0.251592693486 1 0.000507828424 0.000507828424 0.000507828424 2.5788970822232e-007
120	32345 39 25 25 0.001473988578 0.001473988578 1 26.426166762771 26.426166762771 26.426166762771 698.34228977378
