version 2
run General-0-20201229-17:03:13-9400
attr configname General
attr datetime 20201229-17:03:13
attr experiment General
attr inifile SimpleDropping.ini
attr iterationvars ""
attr iterationvars2 $repetition=0
attr measurement ""
attr network SimpleDropping
attr processid 9400
attr repetition 0
attr replication #0
attr resultdir results
attr runnumber 0
attr seedset 0

vector 15  SimpleDropping.node[0].wlan[0].mgmt  dataQueueLen:vector  ETV
attr interpolationmode  sample-hold
attr title  "data queue length, vector"
vector 35  SimpleDropping.node[1].wlan[0].mgmt  dataQueueLen:vector  ETV
attr interpolationmode  sample-hold
attr title  "data queue length, vector"
vector 48  SimpleDropping.attacker[0].wlan[0].mgmt  dataQueueLen:vector  ETV
attr interpolationmode  sample-hold
attr title  "data queue length, vector"
vector 55  SimpleDropping.node[0].wlan[0].mac  RadioState  ETV
attr enum  "IDLE=0, RECV=1, SLEEP=3, TRANSMIT=2"
attr enumname  RadioState
vector 54  SimpleDropping.node[0].wlan[0].mac  State  ETV
attr enum  "BACKOFF=3, DEFER=1, IDLE=0, RECEIVE=8, WAITACK=4, WAITAIFS=2, WAITCTS=6, WAITMULTICAST=5, WAITSIFS=7"
attr enumname  Ieee80211Mac
vector 61  SimpleDropping.node[1].wlan[0].mac  RadioState  ETV
attr enum  "IDLE=0, RECV=1, SLEEP=3, TRANSMIT=2"
attr enumname  RadioState
vector 60  SimpleDropping.node[1].wlan[0].mac  State  ETV
attr enum  "BACKOFF=3, DEFER=1, IDLE=0, RECEIVE=8, WAITACK=4, WAITAIFS=2, WAITCTS=6, WAITMULTICAST=5, WAITSIFS=7"
attr enumname  Ieee80211Mac
vector 67  SimpleDropping.attacker[0].wlan[0].mac  RadioState  ETV
attr enum  "IDLE=0, RECV=1, SLEEP=3, TRANSMIT=2"
attr enumname  RadioState
vector 66  SimpleDropping.attacker[0].wlan[0].mac  State  ETV
attr enum  "BACKOFF=3, DEFER=1, IDLE=0, RECEIVE=8, WAITACK=4, WAITAIFS=2, WAITCTS=6, WAITMULTICAST=5, WAITSIFS=7"
attr enumname  Ieee80211Mac
vector 17  SimpleDropping.node[0].wlan[0].radio  bitrate:vector  ETV
attr interpolationmode  sample-hold
attr title  "tx bitrate, vector"
attr unit  bps
vector 19  SimpleDropping.node[0].wlan[0].radio  radioState:vector  ETV
attr interpolationmode  sample-hold
attr title  "radio state (enum), vector"
vector 18  SimpleDropping.node[0].wlan[0].radio  channelNo:vector  ETV
attr interpolationmode  sample-hold
attr title  "channel no, vector"
vector 37  SimpleDropping.node[1].wlan[0].radio  bitrate:vector  ETV
attr interpolationmode  sample-hold
attr title  "tx bitrate, vector"
attr unit  bps
vector 39  SimpleDropping.node[1].wlan[0].radio  radioState:vector  ETV
attr interpolationmode  sample-hold
attr title  "radio state (enum), vector"
vector 38  SimpleDropping.node[1].wlan[0].radio  channelNo:vector  ETV
attr interpolationmode  sample-hold
attr title  "channel no, vector"
vector 50  SimpleDropping.attacker[0].wlan[0].radio  bitrate:vector  ETV
attr interpolationmode  sample-hold
attr title  "tx bitrate, vector"
attr unit  bps
vector 52  SimpleDropping.attacker[0].wlan[0].radio  radioState:vector  ETV
attr interpolationmode  sample-hold
attr title  "radio state (enum), vector"
vector 51  SimpleDropping.attacker[0].wlan[0].radio  channelNo:vector  ETV
attr interpolationmode  sample-hold
attr title  "channel no, vector"
vector 1  SimpleDropping.node[0].udpApp[0]  sentPk:vector(packetBytes)  ETV
attr interpolationmode  none
attr source  sentPk
attr title  "packets sent, vector(packetBytes)"
vector 3  SimpleDropping.node[0].udp  sentPk:vector(packetBytes)  ETV
attr interpolationmode  none
attr source  sentPk
attr title  "packets sent, vector(packetBytes)"
vector 57  SimpleDropping.node[0].wlan[0].mac  "throughput AC0"  ETV
vector 69  SimpleDropping.attacker[0].wlan[0].mac  "throughput AC0"  ETV
vector 71  SimpleDropping.attacker[0].wlan[0].radio  snirVector  ETV
vector 63  SimpleDropping.node[1].wlan[0].mac  "throughput AC0"  ETV
vector 59  SimpleDropping.node[0].wlan[0].radio  snirVector  ETV
vector 65  SimpleDropping.node[1].wlan[0].radio  snirVector  ETV
vector 64  SimpleDropping.node[1].wlan[0].mac  "Mac delay AC0"  ETV
vector 70  SimpleDropping.attacker[0].wlan[0].mac  "Mac delay AC0"  ETV
vector 42  SimpleDropping.attacker[0].networkLayer.ip  rcvdPkt:vector  ETV
attr interpolationmode  none
attr title  "Number of packet received, vector"
1	5	1	512
3	9	1	520
15	0	0	0
17	0	0	54000000
18	0	0	0
19	0	0	0
19	21	1.004337728099	2
19	21	1.004337728099	2
19	25	1.004399728099	0
19	25	1.004399728099	0
19	44	1.243165818481	2
19	44	1.243165818481	2
19	48	1.243227818481	0
19	48	1.243227818481	0
19	67	1.245465087862	1
19	67	1.245465087862	1
19	71	1.245527087862	0
19	71	1.245527087862	0
19	102	1.245620421194	1
19	102	1.245620421194	1
19	105	1.245654421194	0
19	105	1.245654421194	0
19	126	1.245717754526	1
19	126	1.245717754526	1
19	135	1.245751754526	0
19	135	1.245751754526	0
19	144	1.245959754526	1
19	144	1.245959754526	1
19	147	1.245993754526	0
19	147	1.245993754526	0
19	153	1.246003754526	2
19	153	1.246003754526	2
19	156	1.246037754526	0
19	156	1.246037754526	0
19	162	1.246049087858	1
19	162	1.246049087858	1
19	165	1.246091087858	0
19	165	1.246091087858	0
19	173	1.246101087858	2
19	173	1.246101087858	2
19	185	1.246135087858	0
19	185	1.246135087858	0
19	193	1.246424087858	2
19	193	1.246424087858	2
19	196	1.246458087858	0
19	196	1.246458087858	0
19	202	1.24646942119	1
19	202	1.24646942119	1
19	205	1.24650342119	0
19	205	1.24650342119	0
19	211	1.24651342119	2
19	211	1.24651342119	2
19	214	1.24662742119	0
19	214	1.24662742119	0
35	0	0	0
37	0	0	54000000
38	0	0	0
39	0	0	0
39	68	1.245465087862	1
39	68	1.245465087862	1
39	72	1.245527087862	0
39	72	1.245527087862	0
39	93	1.245575087862	2
39	93	1.245575087862	2
39	96	1.245609087862	0
39	96	1.245609087862	0
39	103	1.245620421194	1
39	103	1.245620421194	1
39	106	1.245654421194	0
39	106	1.245654421194	0
39	111	1.245664421194	2
39	111	1.245664421194	2
39	114	1.245706421194	0
39	114	1.245706421194	0
39	127	1.245717754526	1
39	127	1.245717754526	1
39	136	1.245751754526	0
39	136	1.245751754526	0
39	145	1.245959754526	1
39	145	1.245959754526	1
39	148	1.245993754526	0
39	148	1.245993754526	0
39	163	1.246049087858	1
39	163	1.246049087858	1
39	166	1.246091087858	0
39	166	1.246091087858	0
39	203	1.24646942119	1
39	203	1.24646942119	1
39	206	1.24650342119	0
39	206	1.24650342119	0
42	221	1.246638087856	1
48	0	0	0
50	0	0	54000000
51	0	0	0
52	0	0	0
52	22	1.004338394765	1
52	22	1.004338394765	1
52	26	1.004400394765	0
52	26	1.004400394765	0
52	45	1.243166485147	1
52	45	1.243166485147	1
52	49	1.243228485147	0
52	49	1.243228485147	0
52	66	1.245464421196	2
52	66	1.245464421196	2
52	70	1.245526421196	0
52	70	1.245526421196	0
52	94	1.245575754528	1
52	94	1.245575754528	1
52	97	1.245609754528	0
52	97	1.245609754528	0
52	101	1.245619754528	2
52	101	1.245619754528	2
52	104	1.245653754528	0
52	104	1.245653754528	0
52	112	1.24566508786	1
52	112	1.24566508786	1
52	115	1.24570708786	0
52	115	1.24570708786	0
52	122	1.24571708786	2
52	122	1.24571708786	2
52	134	1.24575108786	0
52	134	1.24575108786	0
52	143	1.24595908786	2
52	143	1.24595908786	2
52	146	1.24599308786	0
52	146	1.24599308786	0
52	154	1.246004421192	1
52	154	1.246004421192	1
52	157	1.246038421192	0
52	157	1.246038421192	0
52	161	1.246048421192	2
52	161	1.246048421192	2
52	164	1.246090421192	0
52	164	1.246090421192	0
52	177	1.246101754524	1
52	177	1.246101754524	1
52	186	1.246135754524	0
52	186	1.246135754524	0
52	194	1.246424754524	1
52	194	1.246424754524	1
52	197	1.246458754524	0
52	197	1.246458754524	0
52	201	1.246468754524	2
52	201	1.246468754524	2
52	204	1.246502754524	0
52	204	1.246502754524	0
52	212	1.246514087856	1
52	212	1.246514087856	1
52	215	1.246628087856	0
52	215	1.246628087856	0
52	222	1.246638087856	2
52	222	1.246638087856	2
54	0	0	0
54	0	0	0
54	19	1.004309728099	0
54	19	1.004309728099	2
54	20	1.004337728099	2
54	20	1.004337728099	5
54	21	1.004337728099	5
54	21	1.004337728099	5
54	24	1.004399728099	5
54	24	1.004399728099	1
54	25	1.004399728099	1
54	25	1.004399728099	2
54	34	1.004427728099	2
54	34	1.004427728099	3
54	35	1.004508728099	3
54	35	1.004508728099	0
54	42	1.243137818481	0
54	42	1.243137818481	2
54	43	1.243165818481	2
54	43	1.243165818481	5
54	44	1.243165818481	5
54	44	1.243165818481	5
54	47	1.243227818481	5
54	47	1.243227818481	1
54	48	1.243227818481	1
54	48	1.243227818481	2
54	57	1.243255818481	2
54	57	1.243255818481	3
54	58	1.243462818481	3
54	58	1.243462818481	0
54	67	1.245465087862	0
54	67	1.245465087862	0
54	71	1.245527087862	0
54	71	1.245527087862	0
54	73	1.245527087862	0
54	73	1.245527087862	0
54	102	1.245620421194	0
54	102	1.245620421194	0
54	105	1.245654421194	0
54	105	1.245654421194	0
54	107	1.245654421194	0
54	107	1.245654421194	0
54	109	1.245654421194	0
54	109	1.245654421194	0
54	126	1.245717754526	0
54	126	1.245717754526	0
54	133	1.245750421194	0
54	133	1.245750421194	0
54	135	1.245751754526	0
54	135	1.245751754526	0
54	137	1.245751754526	0
54	137	1.245751754526	0
54	144	1.245959754526	0
54	144	1.245959754526	0
54	147	1.245993754526	0
54	147	1.245993754526	0
54	149	1.245993754526	0
54	149	1.245993754526	7
54	152	1.246003754526	7
54	152	1.246003754526	0
54	153	1.246003754526	0
54	153	1.246003754526	0
54	156	1.246037754526	0
54	156	1.246037754526	0
54	162	1.246049087858	0
54	162	1.246049087858	0
54	165	1.246091087858	0
54	165	1.246091087858	0
54	167	1.246091087858	0
54	167	1.246091087858	7
54	171	1.246101087858	7
54	171	1.246101087858	0
54	173	1.246101087858	0
54	173	1.246101087858	0
54	183	1.246111087858	0
54	183	1.246111087858	1
54	185	1.246135087858	1
54	185	1.246135087858	2
54	189	1.246163087858	2
54	189	1.246163087858	3
54	192	1.246424087858	3
54	192	1.246424087858	6
54	193	1.246424087858	6
54	193	1.246424087858	6
54	196	1.246458087858	6
54	196	1.246458087858	6
54	202	1.24646942119	6
54	202	1.24646942119	6
54	205	1.24650342119	6
54	205	1.24650342119	6
54	207	1.24650342119	6
54	207	1.24650342119	7
54	210	1.24651342119	7
54	210	1.24651342119	4
54	211	1.24651342119	4
54	211	1.24651342119	4
54	214	1.24662742119	4
54	214	1.24662742119	4
55	0	0	0
55	0	0	0
55	21	1.004337728099	0
55	21	1.004337728099	2
55	25	1.004399728099	2
55	25	1.004399728099	0
55	44	1.243165818481	0
55	44	1.243165818481	2
55	48	1.243227818481	2
55	48	1.243227818481	0
55	67	1.245465087862	0
55	67	1.245465087862	1
55	71	1.245527087862	1
55	71	1.245527087862	0
55	102	1.245620421194	0
55	102	1.245620421194	1
55	105	1.245654421194	1
55	105	1.245654421194	0
55	126	1.245717754526	0
55	126	1.245717754526	1
55	135	1.245751754526	1
55	135	1.245751754526	0
55	144	1.245959754526	0
55	144	1.245959754526	1
55	147	1.245993754526	1
55	147	1.245993754526	0
55	153	1.246003754526	0
55	153	1.246003754526	2
55	156	1.246037754526	2
55	156	1.246037754526	0
55	162	1.246049087858	0
55	162	1.246049087858	1
55	165	1.246091087858	1
55	165	1.246091087858	0
55	173	1.246101087858	0
55	173	1.246101087858	2
55	185	1.246135087858	2
55	185	1.246135087858	0
55	193	1.246424087858	0
55	193	1.246424087858	2
55	196	1.246458087858	2
55	196	1.246458087858	0
55	202	1.24646942119	0
55	202	1.24646942119	1
55	205	1.24650342119	1
55	205	1.24650342119	0
55	211	1.24651342119	0
55	211	1.24651342119	2
55	214	1.24662742119	2
55	214	1.24662742119	0
57	19	1.004309728099	0
57	42	1.243137818481	3148.7083399494
59	71	1.245527087862	26.937691987245
60	0	0	0
60	0	0	0
60	68	1.245465087862	0
60	68	1.245465087862	0
60	72	1.245527087862	0
60	72	1.245527087862	0
60	74	1.245527087862	0
60	74	1.245527087862	0
60	90	1.245547087862	0
60	90	1.245547087862	2
60	92	1.245575087862	2
60	92	1.245575087862	6
60	93	1.245575087862	6
60	93	1.245575087862	6
60	96	1.245609087862	6
60	96	1.245609087862	6
60	103	1.245620421194	6
60	103	1.245620421194	6
60	106	1.245654421194	6
60	106	1.245654421194	6
60	108	1.245654421194	6
60	108	1.245654421194	7
60	110	1.245664421194	7
60	110	1.245664421194	4
60	111	1.245664421194	4
60	111	1.245664421194	4
60	114	1.245706421194	4
60	114	1.245706421194	4
60	127	1.245717754526	4
60	127	1.245717754526	4
60	136	1.245751754526	4
60	136	1.245751754526	4
60	138	1.245751754526	4
60	138	1.245751754526	2
60	140	1.245779754526	2
60	140	1.245779754526	3
60	141	1.245950754526	3
60	141	1.245950754526	0
60	145	1.245959754526	0
60	145	1.245959754526	0
60	148	1.245993754526	0
60	148	1.245993754526	0
60	150	1.245993754526	0
60	150	1.245993754526	0
60	151	1.245993754526	0
60	151	1.245993754526	0
60	163	1.246049087858	0
60	163	1.246049087858	0
60	166	1.246091087858	0
60	166	1.246091087858	0
60	168	1.246091087858	0
60	168	1.246091087858	0
60	184	1.246135087858	0
60	184	1.246135087858	0
60	203	1.24646942119	0
60	203	1.24646942119	0
60	206	1.24650342119	0
60	206	1.24650342119	0
60	208	1.24650342119	0
60	208	1.24650342119	0
60	209	1.24650342119	0
60	209	1.24650342119	0
61	0	0	0
61	0	0	0
61	68	1.245465087862	0
61	68	1.245465087862	1
61	72	1.245527087862	1
61	72	1.245527087862	0
61	93	1.245575087862	0
61	93	1.245575087862	2
61	96	1.245609087862	2
61	96	1.245609087862	0
61	103	1.245620421194	0
61	103	1.245620421194	1
61	106	1.245654421194	1
61	106	1.245654421194	0
61	111	1.245664421194	0
61	111	1.245664421194	2
61	114	1.245706421194	2
61	114	1.245706421194	0
61	127	1.245717754526	0
61	127	1.245717754526	1
61	136	1.245751754526	1
61	136	1.245751754526	0
61	145	1.245959754526	0
61	145	1.245959754526	1
61	148	1.245993754526	1
61	148	1.245993754526	0
61	163	1.246049087858	0
61	163	1.246049087858	1
61	166	1.246091087858	1
61	166	1.246091087858	0
61	203	1.24646942119	0
61	203	1.24646942119	1
61	206	1.24650342119	1
61	206	1.24650342119	0
63	68	1.245465087862	0
64	138	1.245751754526	0.000204666664
65	72	1.245527087862	26.937691987245
66	0	0	0
66	0	0	0
66	22	1.004338394765	0
66	22	1.004338394765	0
66	26	1.004400394765	0
66	26	1.004400394765	0
66	27	1.004400394765	0
66	27	1.004400394765	0
66	45	1.243166485147	0
66	45	1.243166485147	0
66	49	1.243228485147	0
66	49	1.243228485147	0
66	50	1.243228485147	0
66	50	1.243228485147	0
66	64	1.245436421196	0
66	64	1.245436421196	2
66	65	1.245464421196	2
66	65	1.245464421196	5
66	66	1.245464421196	5
66	66	1.245464421196	5
66	69	1.245526421196	5
66	69	1.245526421196	1
66	70	1.245526421196	1
66	70	1.245526421196	2
66	91	1.245554421196	2
66	91	1.245554421196	3
66	94	1.245575754528	3
66	94	1.245575754528	1
66	97	1.245609754528	1
66	97	1.245609754528	2
66	98	1.245609754528	2
66	98	1.245609754528	7
66	100	1.245619754528	7
66	100	1.245619754528	0
66	101	1.245619754528	0
66	101	1.245619754528	0
66	104	1.245653754528	0
66	104	1.245653754528	0
66	112	1.24566508786	0
66	112	1.24566508786	0
66	115	1.24570708786	0
66	115	1.24570708786	0
66	116	1.24570708786	0
66	116	1.24570708786	7
66	120	1.24571708786	7
66	120	1.24571708786	0
66	122	1.24571708786	0
66	122	1.24571708786	0
66	132	1.24572708786	0
66	132	1.24572708786	1
66	134	1.24575108786	1
66	134	1.24575108786	2
66	139	1.24577908786	2
66	139	1.24577908786	3
66	142	1.24595908786	3
66	142	1.24595908786	6
66	143	1.24595908786	6
66	143	1.24595908786	6
66	146	1.24599308786	6
66	146	1.24599308786	6
66	154	1.246004421192	6
66	154	1.246004421192	6
66	157	1.246038421192	6
66	157	1.246038421192	6
66	158	1.246038421192	6
66	158	1.246038421192	7
66	160	1.246048421192	7
66	160	1.246048421192	4
66	161	1.246048421192	4
66	161	1.246048421192	4
66	164	1.246090421192	4
66	164	1.246090421192	4
66	177	1.246101754524	4
66	177	1.246101754524	4
66	186	1.246135754524	4
66	186	1.246135754524	4
66	187	1.246135754524	4
66	187	1.246135754524	2
66	190	1.246163754524	2
66	190	1.246163754524	3
66	191	1.246334754524	3
66	191	1.246334754524	0
66	194	1.246424754524	0
66	194	1.246424754524	0
66	197	1.246458754524	0
66	197	1.246458754524	0
66	198	1.246458754524	0
66	198	1.246458754524	7
66	200	1.246468754524	7
66	200	1.246468754524	0
66	201	1.246468754524	0
66	201	1.246468754524	0
66	204	1.246502754524	0
66	204	1.246502754524	0
66	212	1.246514087856	0
66	212	1.246514087856	0
66	215	1.246628087856	0
66	215	1.246628087856	0
66	216	1.246628087856	0
66	216	1.246628087856	7
66	220	1.246638087856	7
66	220	1.246638087856	0
66	222	1.246638087856	0
66	222	1.246638087856	0
67	0	0	0
67	0	0	0
67	22	1.004338394765	0
67	22	1.004338394765	1
67	26	1.004400394765	1
67	26	1.004400394765	0
67	45	1.243166485147	0
67	45	1.243166485147	1
67	49	1.243228485147	1
67	49	1.243228485147	0
67	66	1.245464421196	0
67	66	1.245464421196	2
67	70	1.245526421196	2
67	70	1.245526421196	0
67	94	1.245575754528	0
67	94	1.245575754528	1
67	97	1.245609754528	1
67	97	1.245609754528	0
67	101	1.245619754528	0
67	101	1.245619754528	2
67	104	1.245653754528	2
67	104	1.245653754528	0
67	112	1.24566508786	0
67	112	1.24566508786	1
67	115	1.24570708786	1
67	115	1.24570708786	0
67	122	1.24571708786	0
67	122	1.24571708786	2
67	134	1.24575108786	2
67	134	1.24575108786	0
67	143	1.24595908786	0
67	143	1.24595908786	2
67	146	1.24599308786	2
67	146	1.24599308786	0
67	154	1.246004421192	0
67	154	1.246004421192	1
67	157	1.246038421192	1
67	157	1.246038421192	0
67	161	1.246048421192	0
67	161	1.246048421192	2
67	164	1.246090421192	2
67	164	1.246090421192	0
67	177	1.246101754524	0
67	177	1.246101754524	1
67	186	1.246135754524	1
67	186	1.246135754524	0
67	194	1.246424754524	0
67	194	1.246424754524	1
67	197	1.246458754524	1
67	197	1.246458754524	0
67	201	1.246468754524	0
67	201	1.246468754524	2
67	204	1.246502754524	2
67	204	1.246502754524	0
67	212	1.246514087856	0
67	212	1.246514087856	1
67	215	1.246628087856	1
67	215	1.246628087856	0
67	222	1.246638087856	0
67	222	1.246638087856	2
69	22	1.004338394765	0
69	45	1.243166485147	0
70	187	1.246135754524	0.000408666664
71	26	1.004400394765	26.937691987245
