file 142715 1609947765                                          
version 2
run General-0-20210106-16:36:08-17080
attr configname General
attr datetime 20210106-16:36:08
attr experiment General
attr inifile SimpleDropping.ini
attr iterationvars ""
attr iterationvars2 $repetition=0
attr measurement ""
attr network SimpleDropping
attr processid 17080
attr repetition 0
attr replication #0
attr resultdir results
attr runnumber 0
attr seedset 0

vector 15  SimpleDropping.node[0].wlan[0].mgmt  dataQueueLen:vector  ETV
attr interpolationmode  sample-hold
attr title  "data queue length, vector"
vector 35  SimpleDropping.node[1].wlan[0].mgmt  dataQueueLen:vector  ETV
attr interpolationmode  sample-hold
attr title  "data queue length, vector"
vector 48  SimpleDropping.attacker[0].wlan[0].mgmt  dataQueueLen:vector  ETV
attr interpolationmode  sample-hold
attr title  "data queue length, vector"
vector 55  SimpleDropping.node[0].wlan[0].mac  RadioState  ETV
attr enum  "IDLE=0, RECV=1, SLEEP=3, TRANSMIT=2"
attr enumname  RadioState
vector 54  SimpleDropping.node[0].wlan[0].mac  State  ETV
attr enum  "BACKOFF=3, DEFER=1, IDLE=0, RECEIVE=8, WAITACK=4, WAITAIFS=2, WAITCTS=6, WAITMULTICAST=5, WAITSIFS=7"
attr enumname  Ieee80211Mac
vector 61  SimpleDropping.node[1].wlan[0].mac  RadioState  ETV
attr enum  "IDLE=0, RECV=1, SLEEP=3, TRANSMIT=2"
attr enumname  RadioState
vector 60  SimpleDropping.node[1].wlan[0].mac  State  ETV
attr enum  "BACKOFF=3, DEFER=1, IDLE=0, RECEIVE=8, WAITACK=4, WAITAIFS=2, WAITCTS=6, WAITMULTICAST=5, WAITSIFS=7"
attr enumname  Ieee80211Mac
vector 67  SimpleDropping.attacker[0].wlan[0].mac  RadioState  ETV
attr enum  "IDLE=0, RECV=1, SLEEP=3, TRANSMIT=2"
attr enumname  RadioState
vector 66  SimpleDropping.attacker[0].wlan[0].mac  State  ETV
attr enum  "BACKOFF=3, DEFER=1, IDLE=0, RECEIVE=8, WAITACK=4, WAITAIFS=2, WAITCTS=6, WAITMULTICAST=5, WAITSIFS=7"
attr enumname  Ieee80211Mac
vector 17  SimpleDropping.node[0].wlan[0].radio  bitrate:vector  ETV
attr interpolationmode  sample-hold
attr title  "tx bitrate, vector"
attr unit  bps
vector 19  SimpleDropping.node[0].wlan[0].radio  radioState:vector  ETV
attr interpolationmode  sample-hold
attr title  "radio state (enum), vector"
vector 18  SimpleDropping.node[0].wlan[0].radio  channelNo:vector  ETV
attr interpolationmode  sample-hold
attr title  "channel no, vector"
vector 37  SimpleDropping.node[1].wlan[0].radio  bitrate:vector  ETV
attr interpolationmode  sample-hold
attr title  "tx bitrate, vector"
attr unit  bps
vector 39  SimpleDropping.node[1].wlan[0].radio  radioState:vector  ETV
attr interpolationmode  sample-hold
attr title  "radio state (enum), vector"
vector 38  SimpleDropping.node[1].wlan[0].radio  channelNo:vector  ETV
attr interpolationmode  sample-hold
attr title  "channel no, vector"
vector 50  SimpleDropping.attacker[0].wlan[0].radio  bitrate:vector  ETV
attr interpolationmode  sample-hold
attr title  "tx bitrate, vector"
attr unit  bps
vector 52  SimpleDropping.attacker[0].wlan[0].radio  radioState:vector  ETV
attr interpolationmode  sample-hold
attr title  "radio state (enum), vector"
vector 51  SimpleDropping.attacker[0].wlan[0].radio  channelNo:vector  ETV
attr interpolationmode  sample-hold
attr title  "channel no, vector"
vector 1  SimpleDropping.node[0].udpApp[0]  sentPk:vector(packetBytes)  ETV
attr interpolationmode  none
attr source  sentPk
attr title  "packets sent, vector(packetBytes)"
vector 3  SimpleDropping.node[0].udp  sentPk:vector(packetBytes)  ETV
attr interpolationmode  none
attr source  sentPk
attr title  "packets sent, vector(packetBytes)"
vector 57  SimpleDropping.node[0].wlan[0].mac  "throughput AC0"  ETV
vector 69  SimpleDropping.attacker[0].wlan[0].mac  "throughput AC0"  ETV
vector 71  SimpleDropping.attacker[0].wlan[0].radio  snirVector  ETV
vector 63  SimpleDropping.node[1].wlan[0].mac  "throughput AC0"  ETV
vector 59  SimpleDropping.node[0].wlan[0].radio  snirVector  ETV
vector 65  SimpleDropping.node[1].wlan[0].radio  snirVector  ETV
vector 64  SimpleDropping.node[1].wlan[0].mac  "Mac delay AC0"  ETV
vector 70  SimpleDropping.attacker[0].wlan[0].mac  "Mac delay AC0"  ETV
vector 42  SimpleDropping.attacker[0].networkLayer.ip  rcvdPkt:vector  ETV
attr interpolationmode  none
attr title  "Number of packet received, vector"
vector 41  SimpleDropping.attacker[0].networkLayer.ip  droppings:vector  ETV
attr interpolationmode  none
attr title  "Number of drops, vector"
vector 58  SimpleDropping.node[0].wlan[0].mac  "Mac delay AC0"  ETV
vector 56  SimpleDropping.node[0].wlan[0].mac  "jitter AC0"  ETV
vector 68  SimpleDropping.attacker[0].wlan[0].mac  "jitter AC0"  ETV
vector 62  SimpleDropping.node[1].wlan[0].mac  "jitter AC0"  ETV
vector 29  SimpleDropping.node[1].networkLayer.ip  rcvdPkt:vector  ETV
attr interpolationmode  none
attr title  "Number of packet received, vector"
vector 24  SimpleDropping.node[1].udp  rcvdPk:vector(packetBytes)  ETV
attr interpolationmode  none
attr source  rcvdPk
attr title  "packets received, vector(packetBytes)"
vector 25  SimpleDropping.node[1].udp  passedUpPk:vector(count)  ETV
attr interpolationmode  none
attr title  "packets passed up, vector(count)"
vector 21  SimpleDropping.node[1].udpApp[0]  rcvdPk:vector(packetBytes)  ETV
attr interpolationmode  none
attr source  rcvdPk
attr title  "packets received, vector(packetBytes)"
vector 22  SimpleDropping.node[1].udpApp[0]  endToEndDelay:vector  ETV
attr interpolationmode  none
attr source  messageAge(rcvdPk)
attr title  "end-to-end delay, vector"
attr unit  s
vector 53  SimpleDropping.attacker[0].wlan[0].radio  lossRate:vector  ETV
attr interpolationmode  backward-sample-hold
attr title  "packet loss rate, vector"
vector 20  SimpleDropping.node[0].wlan[0].radio  lossRate:vector  ETV
attr interpolationmode  backward-sample-hold
attr title  "packet loss rate, vector"
vector 40  SimpleDropping.node[1].wlan[0].radio  lossRate:vector  ETV
attr interpolationmode  backward-sample-hold
attr title  "packet loss rate, vector"
1	6064 458 5 1587 1 9.499989675224 18 512 512 9216 4718592
3	6522 458 9 1588 1 9.499989675224 18 520 520 9360 4867200
15	6980 10 0 0 0 0 1 0 0 0 0
17	6990 17 0 0 0 0 1 54000000 54000000 54000000 2.916e+015
18	7007 10 0 0 0 0 1 0 0 0 0
19	7017 10834 0 1747 0 19.50041167522 429 0 2 294 454
20	17851 26 1294 1294 7.501434774815 7.501434774815 1 0 0 0 0
21	17877 301 367 1674 1.500787526736 9.50060767522 11 512 512 5632 2883584
22	18178 422 367 1674 1.500787526736 9.50060767522 11 0.000563999996 0.000806999996 0.007085999956 4.623551943312e-006
24	18600 301 366 1673 1.500787526736 9.50060767522 11 520 520 5720 2974400
25	18901 281 366 1673 1.500787526736 9.50060767522 11 1 11 66 506
29	19182 281 363 1670 1.500787526736 9.50060767522 11 1 11 66 506
35	19463 10 0 0 0 0 1 0 0 0 0
37	19473 17 0 0 0 0 1 54000000 54000000 54000000 2.916e+015
38	19490 10 0 0 0 0 1 0 0 0 0
39	19500 9642 0 1761 0 19.50045567522 381 0 2 246 358
40	29142 26 1295 1295 7.501434774815 7.501434774815 1 0 0 0 0
41	29168 176 268 1375 1.24701875452 8.001583304304 7 1 7 28 140
42	29344 464 268 1624 1.24701875452 9.500241675222 18 1 18 171 2109
48	29808 10 0 0 0 0 1 0 0 0 0
50	29818 17 0 0 0 0 1 54000000 54000000 54000000 2.916e+015
51	29835 10 0 0 0 0 1 0 0 0 0
52	29845 13654 0 1762 0 19.500456341886 541 0 2 404 672
53	43499 26 1267 1267 7.501175108149 7.501175108149 1 0 0 0 0
54	43525 21142 0 1760 0 19.50045567522 838 0 7 2568 12500
55	64667 10844 0 1747 0 19.50041167522 430 0 2 294 454
56	75511 457 287 1726 1.50021552674 19.500280341888 18 0 0 0 0
57	75968 770 19 1726 1.004309728099 19.500280341888 20 0 21036.440835825 173646.96348186 1840157144.2747
58	76738 689 276 1636 1.247053421186 9.500276341888 18 0.000276666664 0.000480666664 0.005183999952 1.532295972352e-006
59	77427 38 71 71 1.245527087862 1.245527087862 1 26.937691987245 26.937691987245 26.937691987245 725.63924959967
60	77465 16542 0 1761 0 19.50045567522 654 0 7 492 3200
61	94007 9652 0 1761 0 19.50045567522 382 0 2 246 358
62	103659 25 299 299 1.500288860072 1.500288860072 1 0 0 0 0
63	103684 497 68 1727 1.245465087862 19.500280341888 19 0 2825.4820723973 2825.4820723973 7983348.9414384
64	104181 38 144 144 1.245751754526 1.245751754526 1 0.000204666664 0.000204666664 0.000204666664 4.1888443352889e-008
65	104219 38 72 72 1.245527087862 1.245527087862 1 26.937691987245 26.937691987245 26.937691987245 725.63924959967
66	104257 23228 0 1767 0 19.500754341886 920 0 7 2464 13240
67	127485 13664 0 1762 0 19.500456341886 542 0 2 404 672
68	141149 318 290 1723 1.500244193406 19.500251675222 12 0 0.000455666664 0.000455666664 2.0763210868089e-007
69	141467 670 22 1723 1.004338394765 19.500251675222 20 0 9330.6592526974 101525.16382225 930314967.29587
70	142137 540 187 1763 1.246131754524 19.500456341886 14 0.000204666664 0.000860333328 0.00616499996 3.0088925180871e-006
71	142677 38 26 26 1.004400394765 1.004400394765 1 26.937691987245 26.937691987245 26.937691987245 725.63924959967
