version 2
run General-0-20210106-16:36:08-17080
attr configname General
attr datetime 20210106-16:36:08
attr experiment General
attr inifile SimpleDropping.ini
attr iterationvars ""
attr iterationvars2 $repetition=0
attr measurement ""
attr network SimpleDropping
attr processid 17080
attr repetition 0
attr replication #0
attr resultdir results
attr runnumber 0
attr seedset 0

vector 15  SimpleDropping.node[0].wlan[0].mgmt  dataQueueLen:vector  ETV
attr interpolationmode  sample-hold
attr title  "data queue length, vector"
vector 35  SimpleDropping.node[1].wlan[0].mgmt  dataQueueLen:vector  ETV
attr interpolationmode  sample-hold
attr title  "data queue length, vector"
vector 48  SimpleDropping.attacker[0].wlan[0].mgmt  dataQueueLen:vector  ETV
attr interpolationmode  sample-hold
attr title  "data queue length, vector"
vector 55  SimpleDropping.node[0].wlan[0].mac  RadioState  ETV
attr enum  "IDLE=0, RECV=1, SLEEP=3, TRANSMIT=2"
attr enumname  RadioState
vector 54  SimpleDropping.node[0].wlan[0].mac  State  ETV
attr enum  "BACKOFF=3, DEFER=1, IDLE=0, RECEIVE=8, WAITACK=4, WAITAIFS=2, WAITCTS=6, WAITMULTICAST=5, WAITSIFS=7"
attr enumname  Ieee80211Mac
vector 61  SimpleDropping.node[1].wlan[0].mac  RadioState  ETV
attr enum  "IDLE=0, RECV=1, SLEEP=3, TRANSMIT=2"
attr enumname  RadioState
vector 60  SimpleDropping.node[1].wlan[0].mac  State  ETV
attr enum  "BACKOFF=3, DEFER=1, IDLE=0, RECEIVE=8, WAITACK=4, WAITAIFS=2, WAITCTS=6, WAITMULTICAST=5, WAITSIFS=7"
attr enumname  Ieee80211Mac
vector 67  SimpleDropping.attacker[0].wlan[0].mac  RadioState  ETV
attr enum  "IDLE=0, RECV=1, SLEEP=3, TRANSMIT=2"
attr enumname  RadioState
vector 66  SimpleDropping.attacker[0].wlan[0].mac  State  ETV
attr enum  "BACKOFF=3, DEFER=1, IDLE=0, RECEIVE=8, WAITACK=4, WAITAIFS=2, WAITCTS=6, WAITMULTICAST=5, WAITSIFS=7"
attr enumname  Ieee80211Mac
vector 17  SimpleDropping.node[0].wlan[0].radio  bitrate:vector  ETV
attr interpolationmode  sample-hold
attr title  "tx bitrate, vector"
attr unit  bps
vector 19  SimpleDropping.node[0].wlan[0].radio  radioState:vector  ETV
attr interpolationmode  sample-hold
attr title  "radio state (enum), vector"
vector 18  SimpleDropping.node[0].wlan[0].radio  channelNo:vector  ETV
attr interpolationmode  sample-hold
attr title  "channel no, vector"
vector 37  SimpleDropping.node[1].wlan[0].radio  bitrate:vector  ETV
attr interpolationmode  sample-hold
attr title  "tx bitrate, vector"
attr unit  bps
vector 39  SimpleDropping.node[1].wlan[0].radio  radioState:vector  ETV
attr interpolationmode  sample-hold
attr title  "radio state (enum), vector"
vector 38  SimpleDropping.node[1].wlan[0].radio  channelNo:vector  ETV
attr interpolationmode  sample-hold
attr title  "channel no, vector"
vector 50  SimpleDropping.attacker[0].wlan[0].radio  bitrate:vector  ETV
attr interpolationmode  sample-hold
attr title  "tx bitrate, vector"
attr unit  bps
vector 52  SimpleDropping.attacker[0].wlan[0].radio  radioState:vector  ETV
attr interpolationmode  sample-hold
attr title  "radio state (enum), vector"
vector 51  SimpleDropping.attacker[0].wlan[0].radio  channelNo:vector  ETV
attr interpolationmode  sample-hold
attr title  "channel no, vector"
vector 1  SimpleDropping.node[0].udpApp[0]  sentPk:vector(packetBytes)  ETV
attr interpolationmode  none
attr source  sentPk
attr title  "packets sent, vector(packetBytes)"
vector 3  SimpleDropping.node[0].udp  sentPk:vector(packetBytes)  ETV
attr interpolationmode  none
attr source  sentPk
attr title  "packets sent, vector(packetBytes)"
vector 57  SimpleDropping.node[0].wlan[0].mac  "throughput AC0"  ETV
vector 69  SimpleDropping.attacker[0].wlan[0].mac  "throughput AC0"  ETV
vector 71  SimpleDropping.attacker[0].wlan[0].radio  snirVector  ETV
vector 63  SimpleDropping.node[1].wlan[0].mac  "throughput AC0"  ETV
vector 59  SimpleDropping.node[0].wlan[0].radio  snirVector  ETV
vector 65  SimpleDropping.node[1].wlan[0].radio  snirVector  ETV
vector 64  SimpleDropping.node[1].wlan[0].mac  "Mac delay AC0"  ETV
vector 70  SimpleDropping.attacker[0].wlan[0].mac  "Mac delay AC0"  ETV
vector 42  SimpleDropping.attacker[0].networkLayer.ip  rcvdPkt:vector  ETV
attr interpolationmode  none
attr title  "Number of packet received, vector"
vector 41  SimpleDropping.attacker[0].networkLayer.ip  droppings:vector  ETV
attr interpolationmode  none
attr title  "Number of drops, vector"
vector 58  SimpleDropping.node[0].wlan[0].mac  "Mac delay AC0"  ETV
vector 56  SimpleDropping.node[0].wlan[0].mac  "jitter AC0"  ETV
vector 68  SimpleDropping.attacker[0].wlan[0].mac  "jitter AC0"  ETV
vector 62  SimpleDropping.node[1].wlan[0].mac  "jitter AC0"  ETV
vector 29  SimpleDropping.node[1].networkLayer.ip  rcvdPkt:vector  ETV
attr interpolationmode  none
attr title  "Number of packet received, vector"
vector 24  SimpleDropping.node[1].udp  rcvdPk:vector(packetBytes)  ETV
attr interpolationmode  none
attr source  rcvdPk
attr title  "packets received, vector(packetBytes)"
vector 25  SimpleDropping.node[1].udp  passedUpPk:vector(count)  ETV
attr interpolationmode  none
attr title  "packets passed up, vector(count)"
vector 21  SimpleDropping.node[1].udpApp[0]  rcvdPk:vector(packetBytes)  ETV
attr interpolationmode  none
attr source  rcvdPk
attr title  "packets received, vector(packetBytes)"
vector 22  SimpleDropping.node[1].udpApp[0]  endToEndDelay:vector  ETV
attr interpolationmode  none
attr source  messageAge(rcvdPk)
attr title  "end-to-end delay, vector"
attr unit  s
vector 53  SimpleDropping.attacker[0].wlan[0].radio  lossRate:vector  ETV
attr interpolationmode  backward-sample-hold
attr title  "packet loss rate, vector"
vector 20  SimpleDropping.node[0].wlan[0].radio  lossRate:vector  ETV
attr interpolationmode  backward-sample-hold
attr title  "packet loss rate, vector"
vector 40  SimpleDropping.node[1].wlan[0].radio  lossRate:vector  ETV
attr interpolationmode  backward-sample-hold
attr title  "packet loss rate, vector"
1	5	1	512
1	280	1.50020552674	512
1	380	1.999978504696	512
1	432	2.500896403234	512
1	484	3.000572418469	512
1	583	3.500919737731	512
1	685	4.001050115462	512
1	783	4.500789731653	512
1	884	5.001323779058	512
1	933	5.500899761065	512
1	982	5.999967011252	512
1	1083	6.500041056286	512
1	1187	7.001006206199	512
1	1236	7.500933108151	512
1	1338	8.001331304306	512
1	1387	8.50050189544	512
1	1488	9.000989564524	512
1	1587	9.499989675224	512
3	9	1	520
3	281	1.50020552674	520
3	381	1.999978504696	520
3	433	2.500896403234	520
3	485	3.000572418469	520
3	584	3.500919737731	520
3	686	4.001050115462	520
3	784	4.500789731653	520
3	885	5.001323779058	520
3	934	5.500899761065	520
3	983	5.999967011252	520
3	1084	6.500041056286	520
3	1188	7.001006206199	520
3	1237	7.500933108151	520
3	1339	8.001331304306	520
3	1388	8.50050189544	520
3	1489	9.000989564524	520
3	1588	9.499989675224	520
15	0	0	0
17	0	0	54000000
18	0	0	0
19	0	0	0
19	21	1.004337728099	2
19	21	1.004337728099	2
19	25	1.004399728099	0
19	25	1.004399728099	0
19	44	1.243165818481	2
19	44	1.243165818481	2
19	48	1.243227818481	0
19	48	1.243227818481	0
19	67	1.245465087862	1
19	67	1.245465087862	1
19	71	1.245527087862	0
19	71	1.245527087862	0
19	102	1.245620421194	1
19	102	1.245620421194	1
19	105	1.245654421194	0
19	105	1.245654421194	0
19	127	1.245717754526	1
19	127	1.245717754526	1
19	141	1.245751754526	0
19	141	1.245751754526	0
19	150	1.245959754526	1
19	150	1.245959754526	1
19	153	1.245993754526	0
19	153	1.245993754526	0
19	168	1.246049087858	1
19	168	1.246049087858	1
19	171	1.246087087858	0
19	171	1.246087087858	0
19	192	1.24642142119	1
19	192	1.24642142119	1
19	195	1.24645542119	0
19	195	1.24645542119	0
19	201	1.24646542119	2
19	201	1.24646542119	2
19	204	1.24649942119	0
19	204	1.24649942119	0
19	210	1.246510754522	1
19	210	1.246510754522	1
19	213	1.246552754522	0
19	213	1.246552754522	0
19	221	1.246562754522	2
19	221	1.246562754522	2
19	233	1.246596754522	0
19	233	1.246596754522	0
19	240	1.246804754522	2
19	240	1.246804754522	2
19	243	1.246838754522	0
19	243	1.246838754522	0
19	249	1.246850087854	1
19	249	1.246850087854	1
19	252	1.246884087854	0
19	252	1.246884087854	0
19	258	1.246894087854	2
19	258	1.246894087854	2
19	261	1.247008087854	0
19	261	1.247008087854	0
19	270	1.247019421186	1
19	270	1.247019421186	1
19	274	1.247053421186	0
19	274	1.247053421186	0
19	289	1.50024352674	2
19	289	1.50024352674	2
19	292	1.50027752674	0
19	292	1.50027752674	0
19	298	1.500288860072	1
19	298	1.500288860072	1
19	301	1.500322860072	0
19	301	1.500322860072	0
19	307	1.500332860072	2
19	307	1.500332860072	2
19	310	1.500446860072	0
19	310	1.500446860072	0
19	323	1.500458193404	1
19	323	1.500458193404	1
19	327	1.500492193404	0
19	327	1.500492193404	0
19	335	1.500574193404	1
19	335	1.500574193404	1
19	338	1.500608193404	0
19	338	1.500608193404	0
19	353	1.500663526736	1
19	353	1.500663526736	1
19	356	1.500777526736	0
19	356	1.500777526736	0
19	392	2.000016504696	2
19	392	2.000016504696	2
19	395	2.000050504696	0
19	395	2.000050504696	0
19	401	2.000061838028	1
19	401	2.000061838028	1
19	404	2.000095838028	0
19	404	2.000095838028	0
19	410	2.000105838028	2
19	410	2.000105838028	2
19	413	2.000219838028	0
19	413	2.000219838028	0
19	422	2.00023117136	1
19	422	2.00023117136	1
19	426	2.00026517136	0
19	426	2.00026517136	0
19	441	2.500934403234	2
19	441	2.500934403234	2
19	444	2.500968403234	0
19	444	2.500968403234	0
19	450	2.500979736566	1
19	450	2.500979736566	1
19	453	2.501013736566	0
19	453	2.501013736566	0
19	459	2.501023736566	2
19	459	2.501023736566	2
19	462	2.501137736566	0
19	462	2.501137736566	0
19	471	2.501149069898	1
19	471	2.501149069898	1
19	475	2.501183069898	0
19	475	2.501183069898	0
19	493	3.000610418469	2
19	493	3.000610418469	2
19	496	3.000644418469	0
19	496	3.000644418469	0
19	502	3.000655751801	1
19	502	3.000655751801	1
19	505	3.000689751801	0
19	505	3.000689751801	0
19	511	3.000699751801	2
19	511	3.000699751801	2
19	514	3.000813751801	0
19	514	3.000813751801	0
19	527	3.000825085133	1
19	527	3.000825085133	1
19	531	3.000859085133	0
19	531	3.000859085133	0
19	539	3.000977085133	1
19	539	3.000977085133	1
19	542	3.001011085133	0
19	542	3.001011085133	0
19	557	3.001066418465	1
19	557	3.001066418465	1
19	560	3.001180418465	0
19	560	3.001180418465	0
19	592	3.500957737731	2
19	592	3.500957737731	2
19	595	3.500991737731	0
19	595	3.500991737731	0
19	601	3.501003071063	1
19	601	3.501003071063	1
19	604	3.501037071063	0
19	604	3.501037071063	0
19	610	3.501047071063	2
19	610	3.501047071063	2
19	613	3.501161071063	0
19	613	3.501161071063	0
19	626	3.501172404395	1
19	626	3.501172404395	1
19	630	3.501206404395	0
19	630	3.501206404395	0
19	638	3.501306404395	1
19	638	3.501306404395	1
19	641	3.501340404395	0
19	641	3.501340404395	0
19	656	3.501395737727	1
19	656	3.501395737727	1
19	659	3.501509737727	0
19	659	3.501509737727	0
19	694	4.001088115462	2
19	694	4.001088115462	2
19	697	4.001122115462	0
19	697	4.001122115462	0
19	703	4.001133448794	1
19	703	4.001133448794	1
19	706	4.001167448794	0
19	706	4.001167448794	0
19	712	4.001177448794	2
19	712	4.001177448794	2
19	715	4.001291448794	0
19	715	4.001291448794	0
19	728	4.001302782126	1
19	728	4.001302782126	1
19	732	4.001336782126	0
19	732	4.001336782126	0
19	741	4.001643782126	1
19	741	4.001643782126	1
19	744	4.001677782126	0
19	744	4.001677782126	0
19	759	4.001733115458	1
19	759	4.001733115458	1
19	762	4.001847115458	0
19	762	4.001847115458	0
19	792	4.500827731653	2
19	792	4.500827731653	2
19	795	4.500861731653	0
19	795	4.500861731653	0
19	801	4.500873064985	1
19	801	4.500873064985	1
19	804	4.500907064985	0
19	804	4.500907064985	0
19	810	4.500917064985	2
19	810	4.500917064985	2
19	813	4.501031064985	0
19	813	4.501031064985	0
19	826	4.501042398317	1
19	826	4.501042398317	1
19	830	4.501076398317	0
19	830	4.501076398317	0
19	839	4.501329398317	1
19	839	4.501329398317	1
19	842	4.501363398317	0
19	842	4.501363398317	0
19	857	4.501418731649	1
19	857	4.501418731649	1
19	860	4.501532731649	0
19	860	4.501532731649	0
19	893	5.001361779058	2
19	893	5.001361779058	2
19	896	5.001395779058	0
19	896	5.001395779058	0
19	902	5.00140711239	1
19	902	5.00140711239	1
19	905	5.00144111239	0
19	905	5.00144111239	0
19	911	5.00145111239	2
19	911	5.00145111239	2
19	914	5.00156511239	0
19	914	5.00156511239	0
19	923	5.001576445722	1
19	923	5.001576445722	1
19	927	5.001610445722	0
19	927	5.001610445722	0
19	942	5.500937761065	2
19	942	5.500937761065	2
19	945	5.500971761065	0
19	945	5.500971761065	0
19	951	5.500983094397	1
19	951	5.500983094397	1
19	954	5.501017094397	0
19	954	5.501017094397	0
19	960	5.501027094397	2
19	960	5.501027094397	2
19	963	5.501141094397	0
19	963	5.501141094397	0
19	972	5.501152427729	1
19	972	5.501152427729	1
19	976	5.501186427729	0
19	976	5.501186427729	0
19	994	6.000005011252	2
19	994	6.000005011252	2
19	997	6.000039011252	0
19	997	6.000039011252	0
19	1003	6.000050344584	1
19	1003	6.000050344584	1
19	1006	6.000084344584	0
19	1006	6.000084344584	0
19	1012	6.000094344584	2
19	1012	6.000094344584	2
19	1015	6.000208344584	0
19	1015	6.000208344584	0
19	1028	6.000219677916	1
19	1028	6.000219677916	1
19	1032	6.000253677916	0
19	1032	6.000253677916	0
19	1041	6.000353677916	1
19	1041	6.000353677916	1
19	1044	6.000387677916	0
19	1044	6.000387677916	0
19	1059	6.000443011248	1
19	1059	6.000443011248	1
19	1062	6.000557011248	0
19	1062	6.000557011248	0
19	1092	6.500079056286	2
19	1092	6.500079056286	2
19	1095	6.500113056286	0
19	1095	6.500113056286	0
19	1101	6.500124389618	1
19	1101	6.500124389618	1
19	1104	6.500158389618	0
19	1104	6.500158389618	0
19	1110	6.500168389618	2
19	1110	6.500168389618	2
19	1113	6.500282389618	0
19	1113	6.500282389618	0
19	1126	6.50029372295	1
19	1126	6.50029372295	1
19	1130	6.50032772295	0
19	1130	6.50032772295	0
19	1139	6.50041872295	1
19	1139	6.50041872295	1
19	1142	6.50045272295	0
19	1142	6.50045272295	0
19	1157	6.500508056282	1
19	1157	6.500508056282	1
19	1160	6.500622056282	0
19	1160	6.500622056282	0
19	1196	7.001044206199	2
19	1196	7.001044206199	2
19	1199	7.001078206199	0
19	1199	7.001078206199	0
19	1205	7.001089539531	1
19	1205	7.001089539531	1
19	1208	7.001123539531	0
19	1208	7.001123539531	0
19	1214	7.001133539531	2
19	1214	7.001133539531	2
19	1217	7.001247539531	0
19	1217	7.001247539531	0
19	1226	7.001258872863	1
19	1226	7.001258872863	1
19	1230	7.001292872863	0
19	1230	7.001292872863	0
19	1245	7.500971108151	2
19	1245	7.500971108151	2
19	1248	7.501005108151	0
19	1248	7.501005108151	0
19	1254	7.501016441483	1
19	1254	7.501016441483	1
19	1257	7.501050441483	0
19	1257	7.501050441483	0
19	1263	7.501060441483	2
19	1263	7.501060441483	2
19	1266	7.501174441483	0
19	1266	7.501174441483	0
19	1279	7.501185774815	1
19	1279	7.501185774815	1
19	1283	7.501219774815	0
19	1283	7.501219774815	0
19	1291	7.501400774815	1
19	1291	7.501400774815	1
19	1294	7.501434774815	0
19	1294	7.501434774815	0
19	1309	7.501490108147	1
19	1309	7.501490108147	1
19	1312	7.501604108147	0
19	1312	7.501604108147	0
19	1347	8.001369304306	2
19	1347	8.001369304306	2
19	1350	8.001403304306	0
19	1350	8.001403304306	0
19	1356	8.001414637638	1
19	1356	8.001414637638	1
19	1359	8.001448637638	0
19	1359	8.001448637638	0
19	1365	8.001458637638	2
19	1365	8.001458637638	2
19	1368	8.001572637638	0
19	1368	8.001572637638	0
19	1377	8.00158397097	1
19	1377	8.00158397097	1
19	1381	8.00161797097	0
19	1381	8.00161797097	0
19	1396	8.50053989544	2
19	1396	8.50053989544	2
19	1399	8.50057389544	0
19	1399	8.50057389544	0
19	1405	8.500585228772	1
19	1405	8.500585228772	1
19	1408	8.500619228772	0
19	1408	8.500619228772	0
19	1414	8.500629228772	2
19	1414	8.500629228772	2
19	1417	8.500743228772	0
19	1417	8.500743228772	0
19	1430	8.500754562104	1
19	1430	8.500754562104	1
19	1434	8.500788562104	0
19	1434	8.500788562104	0
19	1443	8.500960562104	1
19	1443	8.500960562104	1
19	1446	8.500994562104	0
19	1446	8.500994562104	0
19	1461	8.501049895436	1
19	1461	8.501049895436	1
19	1464	8.501163895436	0
19	1464	8.501163895436	0
19	1497	9.001027564524	2
19	1497	9.001027564524	2
19	1500	9.001061564524	0
19	1500	9.001061564524	0
19	1506	9.001072897856	1
19	1506	9.001072897856	1
19	1509	9.001106897856	0
19	1509	9.001106897856	0
19	1515	9.001116897856	2
19	1515	9.001116897856	2
19	1518	9.001230897856	0
19	1518	9.001230897856	0
19	1531	9.001242231188	1
19	1531	9.001242231188	1
19	1535	9.001276231188	0
19	1535	9.001276231188	0
19	1543	9.001340231188	1
19	1543	9.001340231188	1
19	1546	9.001374231188	0
19	1546	9.001374231188	0
19	1561	9.00142956452	1
19	1561	9.00142956452	1
19	1564	9.00154356452	0
19	1564	9.00154356452	0
19	1596	9.500027675224	2
19	1596	9.500027675224	2
19	1599	9.500061675224	0
19	1599	9.500061675224	0
19	1605	9.500073008556	1
19	1605	9.500073008556	1
19	1608	9.500107008556	0
19	1608	9.500107008556	0
19	1614	9.500117008556	2
19	1614	9.500117008556	2
19	1617	9.500231008556	0
19	1617	9.500231008556	0
19	1630	9.500242341888	1
19	1630	9.500242341888	1
19	1634	9.500276341888	0
19	1634	9.500276341888	0
19	1642	9.500394341888	1
19	1642	9.500394341888	1
19	1645	9.500428341888	0
19	1645	9.500428341888	0
19	1660	9.50048367522	1
19	1660	9.50048367522	1
19	1663	9.50059767522	0
19	1663	9.50059767522	0
19	1726	19.500280341888	1
19	1726	19.500280341888	1
19	1729	19.500314341888	0
19	1729	19.500314341888	0
19	1744	19.50036967522	1
19	1744	19.50036967522	1
19	1747	19.50041167522	0
19	1747	19.50041167522	0
20	1294	7.501434774815	0
21	367	1.500787526736	512
21	571	3.001190418465	512
21	670	3.501519737727	512
21	773	4.001857115458	512
21	871	4.501542731649	512
21	1073	6.000567011248	512
21	1171	6.500632056282	512
21	1323	7.501614108147	512
21	1475	8.501173895436	512
21	1575	9.00155356452	512
21	1674	9.50060767522	512
22	367	1.500787526736	0.000581999996
22	571	3.001190418465	0.000617999996
22	670	3.501519737727	0.000599999996
22	773	4.001857115458	0.000806999996
22	871	4.501542731649	0.000752999996
22	1073	6.000567011248	0.000599999996
22	1171	6.500632056282	0.000590999996
22	1323	7.501614108147	0.000680999996
22	1475	8.501173895436	0.000671999996
22	1575	9.00155356452	0.000563999996
22	1674	9.50060767522	0.000617999996
24	366	1.500787526736	520
24	570	3.001190418465	520
24	669	3.501519737727	520
24	772	4.001857115458	520
24	870	4.501542731649	520
24	1072	6.000567011248	520
24	1170	6.500632056282	520
24	1322	7.501614108147	520
24	1474	8.501173895436	520
24	1574	9.00155356452	520
24	1673	9.50060767522	520
25	366	1.500787526736	1
25	570	3.001190418465	2
25	669	3.501519737727	3
25	772	4.001857115458	4
25	870	4.501542731649	5
25	1072	6.000567011248	6
25	1170	6.500632056282	7
25	1322	7.501614108147	8
25	1474	8.501173895436	9
25	1574	9.00155356452	10
25	1673	9.50060767522	11
29	363	1.500787526736	1
29	567	3.001190418465	2
29	666	3.501519737727	3
29	769	4.001857115458	4
29	867	4.501542731649	5
29	1069	6.000567011248	6
29	1167	6.500632056282	7
29	1319	7.501614108147	8
29	1471	8.501173895436	9
29	1571	9.00155356452	10
29	1670	9.50060767522	11
35	0	0	0
37	0	0	54000000
38	0	0	0
39	0	0	0
39	68	1.245465087862	1
39	68	1.245465087862	1
39	72	1.245527087862	0
39	72	1.245527087862	0
39	93	1.245575087862	2
39	93	1.245575087862	2
39	96	1.245609087862	0
39	96	1.245609087862	0
39	103	1.245620421194	1
39	103	1.245620421194	1
39	106	1.245654421194	0
39	106	1.245654421194	0
39	111	1.245664421194	2
39	111	1.245664421194	2
39	114	1.245706421194	0
39	114	1.245706421194	0
39	128	1.245717754526	1
39	128	1.245717754526	1
39	142	1.245751754526	0
39	142	1.245751754526	0
39	151	1.245959754526	1
39	151	1.245959754526	1
39	154	1.245993754526	0
39	154	1.245993754526	0
39	159	1.246003754526	2
39	159	1.246003754526	2
39	162	1.246037754526	0
39	162	1.246037754526	0
39	169	1.246049087858	1
39	169	1.246049087858	1
39	172	1.246087087858	0
39	172	1.246087087858	0
39	179	1.246097087858	2
39	179	1.246097087858	2
39	185	1.246131087858	0
39	185	1.246131087858	0
39	193	1.24642142119	1
39	193	1.24642142119	1
39	196	1.24645542119	0
39	196	1.24645542119	0
39	211	1.246510754522	1
39	211	1.246510754522	1
39	214	1.246552754522	0
39	214	1.246552754522	0
39	250	1.246850087854	1
39	250	1.246850087854	1
39	253	1.246884087854	0
39	253	1.246884087854	0
39	271	1.247019421186	1
39	271	1.247019421186	1
39	275	1.247053421186	0
39	275	1.247053421186	0
39	299	1.500288860072	1
39	299	1.500288860072	1
39	302	1.500322860072	0
39	302	1.500322860072	0
39	324	1.500458193404	1
39	324	1.500458193404	1
39	328	1.500492193404	0
39	328	1.500492193404	0
39	336	1.500574193404	1
39	336	1.500574193404	1
39	339	1.500608193404	0
39	339	1.500608193404	0
39	344	1.500618193404	2
39	344	1.500618193404	2
39	347	1.500652193404	0
39	347	1.500652193404	0
39	354	1.500663526736	1
39	354	1.500663526736	1
39	357	1.500777526736	0
39	357	1.500777526736	0
39	364	1.500787526736	2
39	364	1.500787526736	2
39	371	1.500821526736	0
39	371	1.500821526736	0
39	402	2.000061838028	1
39	402	2.000061838028	1
39	405	2.000095838028	0
39	405	2.000095838028	0
39	423	2.00023117136	1
39	423	2.00023117136	1
39	427	2.00026517136	0
39	427	2.00026517136	0
39	451	2.500979736566	1
39	451	2.500979736566	1
39	454	2.501013736566	0
39	454	2.501013736566	0
39	472	2.501149069898	1
39	472	2.501149069898	1
39	476	2.501183069898	0
39	476	2.501183069898	0
39	503	3.000655751801	1
39	503	3.000655751801	1
39	506	3.000689751801	0
39	506	3.000689751801	0
39	528	3.000825085133	1
39	528	3.000825085133	1
39	532	3.000859085133	0
39	532	3.000859085133	0
39	540	3.000977085133	1
39	540	3.000977085133	1
39	543	3.001011085133	0
39	543	3.001011085133	0
39	548	3.001021085133	2
39	548	3.001021085133	2
39	551	3.001055085133	0
39	551	3.001055085133	0
39	558	3.001066418465	1
39	558	3.001066418465	1
39	561	3.001180418465	0
39	561	3.001180418465	0
39	568	3.001190418465	2
39	568	3.001190418465	2
39	575	3.001224418465	0
39	575	3.001224418465	0
39	602	3.501003071063	1
39	602	3.501003071063	1
39	605	3.501037071063	0
39	605	3.501037071063	0
39	627	3.501172404395	1
39	627	3.501172404395	1
39	631	3.501206404395	0
39	631	3.501206404395	0
39	639	3.501306404395	1
39	639	3.501306404395	1
39	642	3.501340404395	0
39	642	3.501340404395	0
39	647	3.501350404395	2
39	647	3.501350404395	2
39	650	3.501384404395	0
39	650	3.501384404395	0
39	657	3.501395737727	1
39	657	3.501395737727	1
39	660	3.501509737727	0
39	660	3.501509737727	0
39	667	3.501519737727	2
39	667	3.501519737727	2
39	674	3.501553737727	0
39	674	3.501553737727	0
39	704	4.001133448794	1
39	704	4.001133448794	1
39	707	4.001167448794	0
39	707	4.001167448794	0
39	729	4.001302782126	1
39	729	4.001302782126	1
39	733	4.001336782126	0
39	733	4.001336782126	0
39	742	4.001643782126	1
39	742	4.001643782126	1
39	745	4.001677782126	0
39	745	4.001677782126	0
39	750	4.001687782126	2
39	750	4.001687782126	2
39	753	4.001721782126	0
39	753	4.001721782126	0
39	760	4.001733115458	1
39	760	4.001733115458	1
39	763	4.001847115458	0
39	763	4.001847115458	0
39	770	4.001857115458	2
39	770	4.001857115458	2
39	777	4.001891115458	0
39	777	4.001891115458	0
39	802	4.500873064985	1
39	802	4.500873064985	1
39	805	4.500907064985	0
39	805	4.500907064985	0
39	827	4.501042398317	1
39	827	4.501042398317	1
39	831	4.501076398317	0
39	831	4.501076398317	0
39	840	4.501329398317	1
39	840	4.501329398317	1
39	843	4.501363398317	0
39	843	4.501363398317	0
39	848	4.501373398317	2
39	848	4.501373398317	2
39	851	4.501407398317	0
39	851	4.501407398317	0
39	858	4.501418731649	1
39	858	4.501418731649	1
39	861	4.501532731649	0
39	861	4.501532731649	0
39	868	4.501542731649	2
39	868	4.501542731649	2
39	875	4.501576731649	0
39	875	4.501576731649	0
39	903	5.00140711239	1
39	903	5.00140711239	1
39	906	5.00144111239	0
39	906	5.00144111239	0
39	924	5.001576445722	1
39	924	5.001576445722	1
39	928	5.001610445722	0
39	928	5.001610445722	0
39	952	5.500983094397	1
39	952	5.500983094397	1
39	955	5.501017094397	0
39	955	5.501017094397	0
39	973	5.501152427729	1
39	973	5.501152427729	1
39	977	5.501186427729	0
39	977	5.501186427729	0
39	1004	6.000050344584	1
39	1004	6.000050344584	1
39	1007	6.000084344584	0
39	1007	6.000084344584	0
39	1029	6.000219677916	1
39	1029	6.000219677916	1
39	1033	6.000253677916	0
39	1033	6.000253677916	0
39	1042	6.000353677916	1
39	1042	6.000353677916	1
39	1045	6.000387677916	0
39	1045	6.000387677916	0
39	1050	6.000397677916	2
39	1050	6.000397677916	2
39	1053	6.000431677916	0
39	1053	6.000431677916	0
39	1060	6.000443011248	1
39	1060	6.000443011248	1
39	1063	6.000557011248	0
39	1063	6.000557011248	0
39	1070	6.000567011248	2
39	1070	6.000567011248	2
39	1077	6.000601011248	0
39	1077	6.000601011248	0
39	1102	6.500124389618	1
39	1102	6.500124389618	1
39	1105	6.500158389618	0
39	1105	6.500158389618	0
39	1127	6.50029372295	1
39	1127	6.50029372295	1
39	1131	6.50032772295	0
39	1131	6.50032772295	0
39	1140	6.50041872295	1
39	1140	6.50041872295	1
39	1143	6.50045272295	0
39	1143	6.50045272295	0
39	1148	6.50046272295	2
39	1148	6.50046272295	2
39	1151	6.50049672295	0
39	1151	6.50049672295	0
39	1158	6.500508056282	1
39	1158	6.500508056282	1
39	1161	6.500622056282	0
39	1161	6.500622056282	0
39	1168	6.500632056282	2
39	1168	6.500632056282	2
39	1175	6.500666056282	0
39	1175	6.500666056282	0
39	1206	7.001089539531	1
39	1206	7.001089539531	1
39	1209	7.001123539531	0
39	1209	7.001123539531	0
39	1227	7.001258872863	1
39	1227	7.001258872863	1
39	1231	7.001292872863	0
39	1231	7.001292872863	0
39	1255	7.501016441483	1
39	1255	7.501016441483	1
39	1258	7.501050441483	0
39	1258	7.501050441483	0
39	1280	7.501185774815	1
39	1280	7.501185774815	1
39	1284	7.501219774815	0
39	1284	7.501219774815	0
39	1292	7.501400774815	1
39	1292	7.501400774815	1
39	1295	7.501434774815	0
39	1295	7.501434774815	0
39	1300	7.501444774815	2
39	1300	7.501444774815	2
39	1303	7.501478774815	0
39	1303	7.501478774815	0
39	1310	7.501490108147	1
39	1310	7.501490108147	1
39	1313	7.501604108147	0
39	1313	7.501604108147	0
39	1320	7.501614108147	2
39	1320	7.501614108147	2
39	1327	7.501648108147	0
39	1327	7.501648108147	0
39	1357	8.001414637638	1
39	1357	8.001414637638	1
39	1360	8.001448637638	0
39	1360	8.001448637638	0
39	1378	8.00158397097	1
39	1378	8.00158397097	1
39	1382	8.00161797097	0
39	1382	8.00161797097	0
39	1406	8.500585228772	1
39	1406	8.500585228772	1
39	1409	8.500619228772	0
39	1409	8.500619228772	0
39	1431	8.500754562104	1
39	1431	8.500754562104	1
39	1435	8.500788562104	0
39	1435	8.500788562104	0
39	1444	8.500960562104	1
39	1444	8.500960562104	1
39	1447	8.500994562104	0
39	1447	8.500994562104	0
39	1452	8.501004562104	2
39	1452	8.501004562104	2
39	1455	8.501038562104	0
39	1455	8.501038562104	0
39	1462	8.501049895436	1
39	1462	8.501049895436	1
39	1465	8.501163895436	0
39	1465	8.501163895436	0
39	1472	8.501173895436	2
39	1472	8.501173895436	2
39	1479	8.501207895436	0
39	1479	8.501207895436	0
39	1507	9.001072897856	1
39	1507	9.001072897856	1
39	1510	9.001106897856	0
39	1510	9.001106897856	0
39	1532	9.001242231188	1
39	1532	9.001242231188	1
39	1536	9.001276231188	0
39	1536	9.001276231188	0
39	1544	9.001340231188	1
39	1544	9.001340231188	1
39	1547	9.001374231188	0
39	1547	9.001374231188	0
39	1552	9.001384231188	2
39	1552	9.001384231188	2
39	1555	9.001418231188	0
39	1555	9.001418231188	0
39	1562	9.00142956452	1
39	1562	9.00142956452	1
39	1565	9.00154356452	0
39	1565	9.00154356452	0
39	1572	9.00155356452	2
39	1572	9.00155356452	2
39	1579	9.00158756452	0
39	1579	9.00158756452	0
39	1606	9.500073008556	1
39	1606	9.500073008556	1
39	1609	9.500107008556	0
39	1609	9.500107008556	0
39	1631	9.500242341888	1
39	1631	9.500242341888	1
39	1635	9.500276341888	0
39	1635	9.500276341888	0
39	1643	9.500394341888	1
39	1643	9.500394341888	1
39	1646	9.500428341888	0
39	1646	9.500428341888	0
39	1651	9.500438341888	2
39	1651	9.500438341888	2
39	1654	9.500472341888	0
39	1654	9.500472341888	0
39	1661	9.50048367522	1
39	1661	9.50048367522	1
39	1664	9.50059767522	0
39	1664	9.50059767522	0
39	1671	9.50060767522	2
39	1671	9.50060767522	2
39	1678	9.50064167522	0
39	1678	9.50064167522	0
39	1727	19.500280341888	1
39	1727	19.500280341888	1
39	1730	19.500314341888	0
39	1730	19.500314341888	0
39	1735	19.500324341888	2
39	1735	19.500324341888	2
39	1738	19.500358341888	0
39	1738	19.500358341888	0
39	1745	19.50036967522	1
39	1745	19.50036967522	1
39	1748	19.50041167522	0
39	1748	19.50041167522	0
39	1755	19.50042167522	2
39	1755	19.50042167522	2
39	1761	19.50045567522	0
39	1761	19.50045567522	0
40	1295	7.501434774815	0
41	268	1.24701875452	1
41	420	2.000230504694	2
41	469	2.501148403232	3
41	921	5.001575779056	4
41	970	5.501151761063	5
41	1224	7.001258206197	6
41	1375	8.001583304304	7
42	268	1.24701875452	1
42	317	1.500457526738	2
42	420	2.000230504694	3
42	469	2.501148403232	4
42	521	3.000824418467	5
42	620	3.501171737729	6
42	722	4.00130211546	7
42	820	4.501041731651	8
42	921	5.001575779056	9
42	970	5.501151761063	10
42	1022	6.00021901125	11
42	1120	6.500293056284	12
42	1224	7.001258206197	13
42	1273	7.501185108149	14
42	1375	8.001583304304	15
42	1424	8.500753895438	16
42	1525	9.001241564522	17
42	1624	9.500241675222	18
48	0	0	0
50	0	0	54000000
51	0	0	0
52	0	0	0
52	22	1.004338394765	1
52	22	1.004338394765	1
52	26	1.004400394765	0
52	26	1.004400394765	0
52	45	1.243166485147	1
52	45	1.243166485147	1
52	49	1.243228485147	0
52	49	1.243228485147	0
52	66	1.245464421196	2
52	66	1.245464421196	2
52	70	1.245526421196	0
52	70	1.245526421196	0
52	94	1.245575754528	1
52	94	1.245575754528	1
52	97	1.245609754528	0
52	97	1.245609754528	0
52	101	1.245619754528	2
52	101	1.245619754528	2
52	104	1.245653754528	0
52	104	1.245653754528	0
52	112	1.24566508786	1
52	112	1.24566508786	1
52	115	1.24570708786	0
52	115	1.24570708786	0
52	122	1.24571708786	2
52	122	1.24571708786	2
52	140	1.24575108786	0
52	140	1.24575108786	0
52	149	1.24595908786	2
52	149	1.24595908786	2
52	152	1.24599308786	0
52	152	1.24599308786	0
52	160	1.246004421192	1
52	160	1.246004421192	1
52	163	1.246038421192	0
52	163	1.246038421192	0
52	167	1.246048421192	2
52	167	1.246048421192	2
52	170	1.246086421192	0
52	170	1.246086421192	0
52	182	1.246097754524	1
52	182	1.246097754524	1
52	186	1.246131754524	0
52	186	1.246131754524	0
52	191	1.246420754524	2
52	191	1.246420754524	2
52	194	1.246454754524	0
52	194	1.246454754524	0
52	202	1.246466087856	1
52	202	1.246466087856	1
52	205	1.246500087856	0